

     ************************************************************************
     *************** Dalton - An Electronic Structure Program ***************
     ************************************************************************

    This is output from DALTON release Dalton2024.0-dev (2024)
         ( Web site: http://daltonprogram.org )

   ----------------------------------------------------------------------------

    NOTE:
     
    Dalton is an experimental code for the evaluation of molecular
    properties using (MC)SCF, DFT, CI, and CC wave functions.
    The authors accept no responsibility for the performance of
    the code or for the correctness of the results.
     
    The code (in whole or part) is provided under a licence and
    is not to be reproduced for further distribution without
    the written permission of the authors or their representatives.
     
    See the home page "http://daltonprogram.org" for further information.
     
    If results obtained with this code are published,
    the appropriate citations would be both of:
     
       K. Aidas, C. Angeli, K. L. Bak, V. Bakken,
       R. Bast, L. Boman, O. Christiansen, R. Cimiraglia,
       S. Coriani, P. Dahle, E. K. Dalskov, U. Ekstroem,
       T. Enevoldsen, J. J. Eriksen, P. Ettenhuber, B. Fernandez,
       L. Ferrighi, H. Fliegl, L. Frediani, K. Hald, A. Halkier,
       C. Haettig, H. Heiberg, T. Helgaker, A. C. Hennum,
       H. Hettema, E. Hjertenaes, S. Hoest, I.-M. Hoeyvik,
       M. F. Iozzi, B. Jansik, H. J. Aa. Jensen, D. Jonsson,
       P. Joergensen, J. Kauczor, S. Kirpekar,
       T. Kjaergaard, W. Klopper, S. Knecht, R. Kobayashi, H. Koch,
       J. Kongsted, A. Krapp, K. Kristensen, A. Ligabue,
       O. B. Lutnaes, J. I. Melo, K. V. Mikkelsen, R. H. Myhre,
       C. Neiss, C. B. Nielsen, P. Norman, J. Olsen,
       J. M. H. Olsen, A. Osted, M. J. Packer, F. Pawlowski,
       T. B. Pedersen, P. F. Provasi, S. Reine, Z. Rinkevicius,
       T. A. Ruden, K. Ruud, V. Rybkin, P. Salek, C. C. M. Samson,
       A. Sanchez de Meras, T. Saue, S. P. A. Sauer,
       B. Schimmelpfennig, K. Sneskov, A. H. Steindal,
       K. O. Sylvester-Hvid, P. R. Taylor, A. M. Teale,
       E. I. Tellgren, D. P. Tew, A. J. Thorvaldsen, L. Thoegersen,
       O. Vahtras, M. A. Watson, D. J. D. Wilson, M. Ziolkowski
       and H. Agren,
       "The Dalton quantum chemistry program system",
       WIREs Comput. Mol. Sci. 2014, 4:269-284 (doi: 10.1002/wcms.1172)
     
    and
     
       Dalton, a molecular electronic structure program,
       Release Dalton2024.0-dev (2024), see http://daltonprogram.org
   ----------------------------------------------------------------------------

    Authors in alphabetical order (Major contribution(s) in parenthesis):

  Kestutis Aidas,              Vilnius University,        Lithuania   (QM/MM)
  Celestino Angeli,            University of Ferrara,     Italy       (NEVPT2)
  Juan J. Aucar,               Northeast National UniversiArgentina   (LRESC, Relativistic Effects on EFG)
  Keld L. Bak,                 UNI-C,                     Denmark     (AOSOPPA, non-adiabatic coupling, magnetic properties)
  Vebjoern Bakken,             University of Oslo,        Norway      (DALTON; geometry optimizer, symmetry detection)
  Radovan Bast,                UiT The Arctic U. of NorwayNorway      (DALTON installation and execution frameworks)
  Pablo Baudin,                University of Valencia,    Spain       (Cholesky excitation energies)
  Linus Boman,                 NTNU,                      Norway      (Cholesky decomposition and subsystems)
  Bruno N. Cabral Tenorio,     Technical Univ. of Denmark,Denmark     (Lanczos-based CC methods)
  Ove Christiansen,            Aarhus University,         Denmark     (CC module)
  Renzo Cimiraglia,            University of Ferrara,     Italy       (NEVPT2)
  Sonia Coriani,               Technical Univ. of Denmark,Denmark     (CC and RESPONS modules)
  Janusz Cukras,               University of Warsaw,      Poland      (MChD in RESPONS)
  Paal Dahle,                  University of Oslo,        Norway      (Parallelization)
  Erik K. Dalskov,             UNI-C,                     Denmark     (SOPPA)
  Thomas Enevoldsen,           Univ. of Southern Denmark, Denmark     (SOPPA)
  Janus J. Eriksen,            Aarhus University,         Denmark     (Polarizable embedding, TDA)
  Rasmus Faber,                Technical Univ. of Denmark,Denmark     (Vib.avg. NMR w. SOPPA, parallel AO-SOPPA, CVS-CC and EOMCC)
  Tobias Fahleson,             KTH Stockholm,             Sweden      (Damped cubic response)
  Berta Fernandez,             U. of Santiago de CompostelSpain       (Doublet spin, ESR in RESPONS)
  Lara Ferrighi,               Aarhus University,         Denmark     (PCM Cubic response)
  Heike Fliegl,                University of Oslo,        Norway      (CCSD(R12))
  Luca Frediani,               UiT The Arctic U. of NorwayNorway      (PCM)
  Emmanuel Fromager,           Univ. Strasbourg,          France      (MC-srDFT)
  Bin Gao,                     UiT The Arctic U. of NorwayNorway      (Gen1Int library)
  Andre S. P. Gomes,           CNRS/Universite de Lille,  France      (Frozen density embedding)
  Christof Haettig,            Ruhr-University Bochum,    Germany     (CC module)
  Kasper Hald,                 Aarhus University,         Denmark     (CC module)
  Asger Halkier,               Aarhus University,         Denmark     (CC module)
  Frederik Beyer Hansen,       University of Copenhagen,  Denmark     (Parallel AO-SOPPA)
  Erik D. Hedegaard,           Univ. of Southern Denmark, Denmark     (Polarizable embedding, QM/MM, and MC-srDFT)
  Hanne Heiberg,               University of Oslo,        Norway      (Geometry analysis, selected one-electron integrals)
  Trygve Helgaker,             University of Oslo,        Norway      (DALTON; ABACUS, ERI, DFT modules, London, and much more)
  Alf Christian Hennum,        University of Oslo,        Norway      (Parity violation)
  Hinne Hettema,               University of Auckland,    New Zealand (Quadratic response in RESPONS; SIRIUS supersymmetry)
  Andreas E. Hillers-Bendtsen, University of Copenhagen,  Denmark     (MP3)
  Eirik Hjertenaes,            NTNU,                      Norway      (Cholesky decomposition)
  Nicolai Machholdt Hoeyer,    Aarhus University,         Denmark     (MP3)
  Pi A. B. Haase,              University of Copenhagen,  Denmark     (Triplet AO-SOPPA)
  Maria Francesca Iozzi,       University of Oslo,        Norway      (RPA)
  Christoph Jacob,             TU Braunschweig            Germany     (Frozen density embedding)
  Brano Jansik,                Technical Univ. of Ostrava Czech Rep.  (DFT cubic response)
  Hans Joergen Aa. Jensen,     Univ. of Southern Denmark, Denmark     (DALTON; SIRIUS, RESPONS, ABACUS, MC-srDFT, and much more)
  Dan Jonsson,                 UiT The Arctic U. of NorwayNorway      (Cubic response in RESPONS module)
  Poul Joergensen,             Aarhus University,         Denmark     (RESPONS, ABACUS, and CC modules)
  Maciej Kaminski,             University of Warsaw,      Poland      (CPPh in RESPONS)
  Joanna Kauczor,              Linkoeping University,     Sweden      (Complex polarization propagator (CPP) module)
  Sheela Kirpekar,             Univ. of Southern Denmark, Denmark     (Mass-velocity & Darwin integrals)
  Frederik Oersted Kjeldal,    Technical Univ. of Denmark,Denmark     (MP3)
  Erik Kjellgren,              Univ. of Southern Denmark, Denmark     (MC-srDFT)
  Wim Klopper,                 KIT Karlsruhe,             Germany     (R12 code in CC, SIRIUS, and ABACUS modules)
  Stefan Knecht,               ETH Zurich,                Switzerland (Parallel CI and MCSCF, MC-srDFT)
  Rika Kobayashi,              Australian National Univ., Australia   (DIIS in CC, London in MCSCF)
  Henrik Koch,                 NTNU,                      Norway      (CC module, Cholesky decomposition)
  Jacob Kongsted,              Univ. of Southern Denmark, Denmark     (Polarizable embedding, polarizable density embedding, QM/MM)
  Andrea Ligabue,              University of Modena,      Italy       (CTOCD, AOSOPPA)
  Nanna H. List,               Univ. of Southern Denmark, Denmark     (Polarizable embedding)
  Ola B. Lutnaes,              University of Oslo,        Norway      (DFT Hessian)
  Juan I. Melo,                University of Buenos Aires,Argentina   (LRESC, Relativistic Effects on NMR Shieldings)
  Kurt V. Mikkelsen,           University of Copenhagen,  Denmark     (MC-SCRF, QM/MM, and MP3)
  Rolf H. Myhre,               NTNU,                      Norway      (Subsystems and CC3)
  Christian Neiss,             Univ. Erlangen-Nuernberg,  Germany     (CCSD(R12))
  Christian B. Nielsen,        University of Copenhagen,  Denmark     (QM/MM)
  Patrick Norman,              KTH Stockholm,             Sweden      (Cubic response and complex frequency response in RESPONS)
  Jeppe Olsen,                 Aarhus University,         Denmark     (SIRIUS CI/density modules)
  Jogvan Magnus H. Olsen,      Aarhus University,         Denmark     (Polarizable embedding and polarizable density embedding)
  Anders Osted,                Copenhagen University,     Denmark     (QM/MM)
  Martin J. Packer,            University of Sheffield,   UK          (SOPPA)
  Filip Pawlowski,             Kazimierz Wielki UniversityPoland      (CC3)
  Morten N. Pedersen,          Univ. of Southern Denmark, Denmark     (Polarizable embedding)
  Thomas B. Pedersen,          University of Oslo,        Norway      (Cholesky decomposition)
  Patricio F. Provasi,         University of Northeastern,Argentina   (Analysis of coupling constants in localized orbitals)
  Peter Reinholdt,             Univ. of Southern Denmark, Denmark     (Polarizable embedding and polarizable density embedding)
  Zilvinas Rinkevicius,        KTH Stockholm,             Sweden      (open-shell DFT, ESR)
  Elias Rudberg,               KTH Stockholm,             Sweden      (DFT grid and basis info)
  Torgeir A. Ruden,            University of Oslo,        Norway      (Numerical derivatives in ABACUS)
  Kenneth Ruud,                UiT The Arctic U. of NorwayNorway      (DALTON; ABACUS magnetic properties and much more)
  Pawel Salek,                 KTH Stockholm,             Sweden      (DALTON; DFT code)
  Claire C. M. Samson,         University of Karlsruhe    Germany     (Boys localization, r12 integrals in ERI)
  Alfredo Sanchez de Meras,    University of Valencia,    Spain       (CC module, Cholesky decomposition)
  Trond Saue,                  Paul Sabatier University,  France      (direct Fock matrix construction)
  Stephan P. A. Sauer,         University of Copenhagen,  Denmark     (SOPPA(CCSD), SOPPA prop., AOSOPPA, vibrational g-factors)
  Bernd Schimmelpfennig,       Forschungszentrum KarlsruheGermany     (AMFI module)
  Anna K. Schnack-Petersen,    University of Copenhagen,  Denmark     (RPA(D) and HRPA(D) properties in AOSOPPA)
  Kristian Sneskov,            Aarhus University,         Denmark     (Polarizable embedding, QM/MM)
  Arnfinn H. Steindal,         UiT The Arctic U. of NorwayNorway      (parallel QM/MM, polarizable embedding)
  Casper Steinmann,            Aalborg University,        Denmark     (QFIT, polarizable embedding)
  K. O. Sylvester-Hvid,        University of Copenhagen,  Denmark     (MC-SCRF)
  Peter R. Taylor,             VLSCI/Univ. of Melbourne,  Australia   (Symmetry handling ABACUS, integral transformation)
  Andrew M. Teale,             University of Nottingham,  England     (DFT-AC, DFT-D)
  David P. Tew,                University of Bristol,     England     (CCSD(R12))
  Julien Toulouse,             Sorbonne Univ.,            France      (MC-srDFT)
  Olav Vahtras,                KTH Stockholm,             Sweden      (Triplet response, spin-orbit, ESR, TDDFT, open-shell DFT)
  Lucas Visscher,              Vrije Universiteit AmsterdaNetherlands (Frozen density embedding)
  David J. Wilson,             La Trobe University,       Australia   (DFT Hessian and DFT magnetizabilities)
  Luna Zamok,                  University of Copenhagen,  Denmark     (Block Lanczos RPA solver in SOPPA module)
  Hans Agren,                  KTH Stockholm,             Sweden      (SIRIUS module, RESPONS, MC-SCRF solvation)
 --------------------------------------------------------------------------------

     Date and time (Linux)  : Thu Feb 20 16:29:35 2025
     Host name              : s43n13.grendel.cscaa.dk                 

 * Work memory size             :  2621440000 = 19.531 gigabytes.

 * Directories for basis set searches:
   1) /home/jmikk/projects/dissociation/ch3cl2-
   2) /home/jmikk/programs/dalton-oslo/build64/basis


Compilation information
-----------------------

 Who compiled             | jmikk
 Host                     | grendel
 System                   | Linux-4.18.0-513.18.1.el8_9.x86_64
 CMake generator          | Unix Makefiles
 Processor                | x86_64
 64-bit integers          | ON
 MPI                      | OFF
 Fortran compiler         | /comm/swstack/core/gcc/11.2.0/bin/gfortran
 Fortran compiler version | GNU Fortran (GCC) 11.2.0
 C compiler               | /comm/swstack/core/gcc/11.2.0/bin/gcc
 C compiler version       | gcc (GCC) 11.2.0
 C++ compiler             | /comm/swstack/core/gcc/11.2.0/bin/g++
 C++ compiler version     | g++ (GCC) 11.2.0
 Static linking           | OFF
 Last Git revision        | 082d2ff11a6851740f25fd48efdf99ad0c6d6e99
 Git branch               | crk-oslo
 Configuration time       | 2025-02-20 16:01:14.580200

 * Sequential calculation.


   Content of the .dal input file
 ----------------------------------

**DALTON INPUT
.RUN RESPONSE
**WAVE FUNCTIONS
.HF
.MP2
.MCSCF
*CONFIGURATION INPUT
.INACTIVE
 17
.CAS SPACE
 9
.ELECTRONS
 9
**RESPONSE
*LINEAR
.ATMMOM
 1
**END OF DALTON INPUT


   Content of the .mol file
 ----------------------------

BASIS
pcseg-1
Chloroform (CH3Cl2-)
Property calculated with xxx/pcseg-1. Geo opt with wB97x/aug-pcseg-1 and IRC
Atomtypes=3 NoSymmetry Angstrom
Charge=6.0 Atoms=1
C   0.255167    0.000336   -0.000117
Charge=17.0 Atoms=2
Cl1  2.290783    0.002166   -0.000467
Cl2 -2.380321   -0.002295    0.000513
Charge=1.0 Atoms=3
H1   0.028299    1.057290   -0.070267
H2   0.029630   -0.467584    0.950525
H3   0.029058   -0.589176   -0.880459


       *******************************************************************
       *********** Output from DALTON general input processing ***********
       *******************************************************************

 --------------------------------------------------------------------------------
   Overall default print level:    0
   Print level for DALTON.STAT:    1

    HERMIT 1- and 2-electron integral sections will be executed
    "Old" integral transformation used (limited to max 255 basis functions)
    Wave function sections will be executed (SIRIUS module)
    Dynamic molecular response properties section will be executed (RESPONSE module)
 --------------------------------------------------------------------------------


   ****************************************************************************
   *************** Output of molecule and basis set information ***************
   ****************************************************************************


    The two title cards from your ".mol" input:
    --------------------------------------------------------------------------------
 1: Chloroform (CH3Cl2-)
 2: Property calculated with xxx/pcseg-1. Geo opt with wB97x/aug-pcseg-1 and IRC
    --------------------------------------------------------------------------------

  Coordinates are entered in Angstrom and converted to atomic units.
          - Conversion factor : 1 bohr = 0.52917721 A

  Atomic type no.    1
  --------------------
  Nuclear charge:   6.00000
  Number of symmetry independent centers:    1
  Number of basis sets to read;    2
  Basis set file used for this atomic type with Z =   6 :
     "/home/jmikk/programs/dalton-oslo/build64/basis/pcseg-1"

  Info about the basis set file: your basis has no documentation.
  Basis set: pcseg-1                                                                         

  Atomic type no.    2
  --------------------
  Nuclear charge:  17.00000
  Number of symmetry independent centers:    2
  Number of basis sets to read;    2
  Basis set file used for this atomic type with Z =  17 :
     "/home/jmikk/programs/dalton-oslo/build64/basis/pcseg-1"

  Info about the basis set file: your basis has no documentation.
  Basis set: pcseg-1                                                                         

  Atomic type no.    3
  --------------------
  Nuclear charge:   1.00000
  Number of symmetry independent centers:    3
  Number of basis sets to read;    2
  Basis set file used for this atomic type with Z =   1 :
     "/home/jmikk/programs/dalton-oslo/build64/basis/pcseg-1"

  Info about the basis set file: your basis has no documentation.
  Basis set: pcseg-1                                                                         


                         SYMGRP: Point group information
                         -------------------------------

@    Point group: C1 


                                 Isotopic Masses
                                 ---------------

                           C          12.000000
                           Cl1        34.968853
                           Cl2        34.968853
                           H1          1.007825
                           H2          1.007825
                           H3          1.007825

                       Total mass:    84.961181 amu
                       Natural abundance:  56.754 %

 Center-of-mass coordinates (a.u.):    0.000414    0.000001    0.000000
 Center-of-mass coordinates (Angs):    0.000219    0.000001    0.000000


  Atoms and basis sets
  --------------------

  Number of atom types :    3
  Total number of atoms:    6

  Basis set used is "pcseg-1" from the basis set library.

  label    atoms   charge   prim   cont     basis
  ----------------------------------------------------------------------
  C           1    6.0000    25    14      [8s4p1d|3s2p1d]                                    
  Cl          2   17.0000    44    18      [12s9p1d|4s3p1d]                                   
  H3          3    1.0000     7     5      [4s1p|2s1p]                                        
  ----------------------------------------------------------------------
  total:      6   43.0000   134    65
  ----------------------------------------------------------------------
  Spherical harmonic basis used.

  Threshold for neglecting AO integrals:  1.00D-12


  Cartesian Coordinates (a.u.)
  ----------------------------

  Total number of coordinates:   18
  C       :     1  x   0.4821957461    2  y   0.0006349480    3  z  -0.0002210980
  Cl1     :     4  x   4.3289524818    5  y   0.0040931468    6  z  -0.0008825021
  Cl2     :     7  x  -4.4981547796    8  y  -0.0043369215    9  z   0.0009694295
  H1      :    10  x   0.0534773596   11  y   1.9979885347   12  z  -0.1327853856
  H2      :    13  x   0.0559925851   14  y  -0.8836057004   15  z   1.7962319250
  H3      :    16  x   0.0549116617   17  y  -1.1133812794   18  z  -1.6638263743


   Interatomic separations (in Angstrom):
   --------------------------------------

            C           Cl1         Cl2         H1          H2          H3    
            ------      ------      ------      ------      ------      ------
 C     :    0.000000
 Cl1   :    2.035617    0.000000
 Cl2   :    2.635489    4.671106    0.000000
 H1    :    1.083301    2.497397    2.632334    0.000000
 H2    :    1.083299    2.497572    2.631897    1.835009    0.000000
 H3    :    1.083352    2.497893    2.631663    1.835010    1.835017    0.000000


  Max    interatomic separation is    4.6711 Angstrom (    8.8271 Bohr)
  between atoms    3 and    2, "Cl2   " and "Cl1   ".

  Min HX interatomic separation is    1.0833 Angstrom (    2.0471 Bohr)

  Min YX interatomic separation is    2.0356 Angstrom (    3.8468 Bohr)


  Bond distances (Angstrom):
  --------------------------

                  atom 1     atom 2       distance
                  ------     ------       --------
  bond distance:  Cl1        C            2.035617
  bond distance:  H1         C            1.083301
  bond distance:  H2         C            1.083299
  bond distance:  H3         C            1.083352


  Bond angles (degrees):
  ----------------------

                  atom 1     atom 2     atom 3         angle
                  ------     ------     ------         -----
  bond angle:     Cl1        C          H1           102.036
  bond angle:     Cl1        C          H2           102.048
  bond angle:     Cl1        C          H3           102.067
  bond angle:     H1         C          H2           115.764
  bond angle:     H1         C          H3           115.759
  bond angle:     H2         C          H3           115.760




 Principal moments of inertia (u*A**2) and principal axes
 --------------------------------------------------------

   IA       3.393618          1.000000    0.000957   -0.000210
   IB     384.117619          0.000107    0.105826    0.994385
   IC     384.117637         -0.000974    0.994384   -0.105826


 Rotational constants
 --------------------

               A                   B                   C

         148920.4030           1315.6882           1315.6881 MHz
            4.967450            0.043887            0.043887 cm-1


@  Nuclear repulsion energy :  110.453547825231 Hartree


                     .---------------------------------------.
                     | Starting in Integral Section (HERMIT) |
                     `---------------------------------------'



 ***************************************************************************************
 ****************** Output from **INTEGRALS input processing (HERMIT) ******************
 ***************************************************************************************


 - Using defaults, no **INTEGRALS input found

 Default print level:        1

 Calculation of one- and two-electron Hamiltonian integrals.

 Center of mass  (bohr):      0.000414384162      0.000001226997      0.000000044360
 Operator center (bohr):      0.000000000000      0.000000000000      0.000000000000
 Gauge origin    (bohr):      0.000000000000      0.000000000000      0.000000000000
 Dipole origin   (bohr):      0.000000000000      0.000000000000      0.000000000000

Calculation of 2-electron integrals are postponed until they are needed.


     ************************************************************************
     ************************** Output from HERINT **************************
     ************************************************************************



                      Nuclear contribution to dipole moments
                      --------------------------------------

                 au               Debye          C m (/(10**-30)

      x      0.18111702         0.46035352         1.53557405
      y      0.00066707         0.00169553         0.00565568
      z     -0.00022866        -0.00058119        -0.00193863


  Total CPU  time used in HERMIT:   0.04 seconds
  Total wall time used in HERMIT:   0.04 seconds


                        .----------------------------------.
                        | End of Integral Section (HERMIT) |
                        `----------------------------------'



                   .--------------------------------------------.
                   | Starting in Wave Function Section (SIRIUS) |
                   `--------------------------------------------'


 *** Output from Huckel module :

     Using EWMO model:          T
     Using EHT  model:          F
     Number of Huckel orbitals each symmetry:   36

 EWMO - Energy Weighted Maximum Overlap - is a Huckel type method,
        which normally is better than Extended Huckel Theory.
 Reference: Linderberg and Ohrn, Propagators in Quantum Chemistry (Wiley, 1973)

 Huckel EWMO eigenvalues for symmetry :  1
         -104.883941    -104.883908     -11.348580     -10.608896     -10.607667
           -8.072423      -8.072227      -8.072216      -8.072216      -8.072203
           -8.072203      -1.460487      -1.125910      -0.996225      -0.717942
           -0.717929      -0.582053      -0.505363      -0.505362      -0.466681
           -0.466679      -0.452464      -0.255440      -0.132756      -0.115235
           -0.115224      -0.055547      -0.055547      -0.055539      -0.055539
           -0.055228      -0.055228      -0.054308      -0.053757      -0.053757
           -0.050080

 **********************************************************************
 *SIRIUS* a direct, restricted step, second order MCSCF program       *
 **********************************************************************

 
     Date and time (Linux)  : Thu Feb 20 16:29:35 2025
     Host name              : s43n13.grendel.cscaa.dk                 

 Title lines from ".mol" input file:
     Chloroform (CH3Cl2-)
     Property calculated with xxx/pcseg-1. Geo opt with wB97x/aug-pcseg-1 and IRC

 Print level on unit LUPRI =   2 is   0
 Print level on unit LUW4  =   2 is   5

@    MCSCF optimization.

@    MCSCF response calculation.
@              Type: complete active space calculation (CAS).

@    This is a combination run starting with
@              a restricted, one open shell Hartree-Fock calculation
@              an MP2 calculation


 Initial molecular orbitals are obtained according to
 ".MOSTART EWMO  " input option

     Wave function specification
     ============================
@    Wave function type        --- MC-SCF ---
@    Number of closed shell electrons          34
@    Number of electrons in active shells       9
@    Total charge of the molecule               0

@    Spin multiplicity and 2 M_S                2         1
@    Total number of symmetries                 1 (point group: C1 )
@    Reference state symmetry                   1 (irrep name : A  )

     Orbital specifications
     ======================
@    Abelian symmetry species          All |    1
@                                          |  A  
                                       --- |  ---
@    Inactive orbitals                  17 |   17
@    Active orbitals                     9 |    9
@    Secondary orbitals                 39 |   39
@    Total number of orbitals           65 |   65
@    Number of basis functions          65 |   65

      -- Initial occupation of symmetries is determined from total charge (only one symmetry!)
      -- Initial occupation of symmetries is :
@    Occupied SCF orbitals              21 |   21

@    plus one open shell SCF orbital of symmetry   1

     Optimization information
     ========================
@    Number of configurations              8820
@    Number of orbital rotations           1167
     ------------------------------------------
@    Total number of variables             9987

     Maximum number of macro iterations      25
     Maximum number of micro iterations     600
     Threshold for MCSCF gradient      1.00D-05
     Number of initial trial vectors          1
     Number of initial CI iterations         -1
     Number of simultaneous trial vectors     1

@    This calculation converges to the lowest state for the specified symmetry and spin species.

     Maximum number of NEO/NR iterations  24


 ***********************************************
 ***** DIIS acceleration of SCF iterations *****
 ***********************************************

 C1-DIIS algorithm; max error vectors =    8

 Iter      Total energy        Error norm    Delta(E)  DIIS dim.
 -----------------------------------------------------------------------------

 ----------------------------------------------------------------
 ----- Linear response calculation
 ----- Symmetry of excitation/property operator(s)    1  ( A  )
 ----------------------------------------------------------------

 Number of excitations of this symmetry            0
 Number of response properties of this symmetry   24
 Number of C6/C8 properties of this symmetry       0


 Perturbation symmetry.     KSYMOP:           1
 Perturbation spin symmetry.TRPLET:           F
 Orbital variables.         KZWOPT:        1167
 Configuration variables.   KZCONF:        8820
 Total number of variables. KZVAR :        9987


 RSPLR -- linear response calculation for symmetry 1  ( A  )
 RSPLR -- operator label : AM010600
 RSPLR -- operator spin  :   0
 RSPLR -- frequencies    :     0.000000



 ---  SOLVING SETS OF LINEAR EQUATIONS FOR LINEAR RESPONSE PROPERTIES ---

 Operator symmetry = 1  ( A  ); triplet =   F


 ** RSPCTL MICROITERATION NUMBER    1

       No.  Residual tot.,    conf., and orb.    Bnorm      Frequency 
      ----------------------------------------------------------------
         1    5.94891D-01  2.83D-01  5.23D-01  9.15D-01    0.00000D+00

 ** RSPCTL MICROITERATION NUMBER    2

       No.  Residual tot.,    conf., and orb.    Bnorm      Frequency 
      ----------------------------------------------------------------
         1    3.38471D-01  3.21D-01  1.06D-01  1.25D+00    0.00000D+00

 ** RSPCTL MICROITERATION NUMBER    3

       No.  Residual tot.,    conf., and orb.    Bnorm      Frequency 
      ----------------------------------------------------------------
         1    1.46022D-01  9.06D-02  1.15D-01  1.32D+00    0.00000D+00

 ** RSPCTL MICROITERATION NUMBER    4

       No.  Residual tot.,    conf., and orb.    Bnorm      Frequency 
      ----------------------------------------------------------------
         1    9.81200D-02  9.50D-02  2.47D-02  1.36D+00    0.00000D+00

 ** RSPCTL MICROITERATION NUMBER    5

       No.  Residual tot.,    conf., and orb.    Bnorm      Frequency 
      ----------------------------------------------------------------
         1    4.06412D-02  2.82D-02  2.92D-02  1.38D+00    0.00000D+00

 ** RSPCTL MICROITERATION NUMBER    6

       No.  Residual tot.,    conf., and orb.    Bnorm      Frequency 
      ----------------------------------------------------------------
         1    3.41510D-02  3.22D-02  1.15D-02  1.40D+00    0.00000D+00

 ** RSPCTL MICROITERATION NUMBER    7

       No.  Residual tot.,    conf., and orb.    Bnorm      Frequency 
      ----------------------------------------------------------------
         1    1.86338D-02  1.21D-02  1.42D-02  1.41D+00    0.00000D+00

 ** RSPCTL MICROITERATION NUMBER    8

       No.  Residual tot.,    conf., and orb.    Bnorm      Frequency 
      ----------------------------------------------------------------
         1    1.54084D-02  1.35D-02  7.45D-03  1.42D+00    0.00000D+00

 ** RSPCTL MICROITERATION NUMBER    9

       No.  Residual tot.,    conf., and orb.    Bnorm      Frequency 
      ----------------------------------------------------------------
         1    9.35353D-03  4.67D-03  8.10D-03  1.43D+00    0.00000D+00

 ** RSPCTL MICROITERATION NUMBER   10

       No.  Residual tot.,    conf., and orb.    Bnorm      Frequency 
      ----------------------------------------------------------------
         1    7.64305D-03  6.39D-03  4.19D-03  1.44D+00    0.00000D+00

 ** RSPCTL MICROITERATION NUMBER   11

       No.  Residual tot.,    conf., and orb.    Bnorm      Frequency 
      ----------------------------------------------------------------
         1    5.55594D-03  1.96D-03  5.20D-03  1.44D+00    0.00000D+00

 ** RSPCTL MICROITERATION NUMBER   12

       No.  Residual tot.,    conf., and orb.    Bnorm      Frequency 
      ----------------------------------------------------------------
         1    5.19667D-03  4.53D-03  2.54D-03  1.45D+00    0.00000D+00

 ** RSPCTL MICROITERATION NUMBER   13

       No.  Residual tot.,    conf., and orb.    Bnorm      Frequency 
      ----------------------------------------------------------------
         1    3.67471D-03  1.40D-03  3.40D-03  1.45D+00    0.00000D+00

 ** RSPCTL MICROITERATION NUMBER   14

       No.  Residual tot.,    conf., and orb.    Bnorm      Frequency 
      ----------------------------------------------------------------
         1    3.48001D-03  2.94D-03  1.87D-03  1.46D+00    0.00000D+00

 ** RSPCTL MICROITERATION NUMBER   15

       No.  Residual tot.,    conf., and orb.    Bnorm      Frequency 
      ----------------------------------------------------------------
         1    2.63002D-03  9.70D-04  2.44D-03  1.46D+00    0.00000D+00

 ** RSPCTL MICROITERATION NUMBER   16

       No.  Residual tot.,    conf., and orb.    Bnorm      Frequency 
      ----------------------------------------------------------------
         1    1.83752D-03  1.63D-03  8.51D-04  1.46D+00    0.00000D+00

 ** RSPCTL MICROITERATION NUMBER   17

       No.  Residual tot.,    conf., and orb.    Bnorm      Frequency 
      ----------------------------------------------------------------
         1    1.18166D-03  4.51D-04  1.09D-03  1.46D+00    0.00000D+00

 *** THE REQUESTED    1 SOLUTION VECTORS CONVERGED

 Convergence of RSP solution vectors, threshold = 1.00D-03
 ---------------------------------------------------------------
 (dimension of paired reduced space:   36)
 RSP solution vector no.    1; norm of residual   8.09D-04

 *** RSPCTL MICROITERATIONS CONVERGED


 RSPLR -- linear response calculation for symmetry 1  ( A  )
 RSPLR -- operator label : AM021700
 RSPLR -- operator spin  :   0
 RSPLR -- frequencies    :     0.000000



 ---  SOLVING SETS OF LINEAR EQUATIONS FOR LINEAR RESPONSE PROPERTIES ---

 Operator symmetry = 1  ( A  ); triplet =   F


 ** RSPCTL MICROITERATION NUMBER    1

       No.  Residual tot.,    conf., and orb.    Bnorm      Frequency 
      ----------------------------------------------------------------
         1    6.68651D-01  3.56D-01  5.66D-01  1.28D+00    0.00000D+00

 ** RSPCTL MICROITERATION NUMBER    2

       No.  Residual tot.,    conf., and orb.    Bnorm      Frequency 
      ----------------------------------------------------------------
         1    4.53701D-01  4.28D-01  1.50D-01  1.73D+00    0.00000D+00

 ** RSPCTL MICROITERATION NUMBER    3

       No.  Residual tot.,    conf., and orb.    Bnorm      Frequency 
      ----------------------------------------------------------------
         1    2.05077D-01  1.07D-01  1.75D-01  1.86D+00    0.00000D+00

 ** RSPCTL MICROITERATION NUMBER    4

       No.  Residual tot.,    conf., and orb.    Bnorm      Frequency 
      ----------------------------------------------------------------
         1    1.21424D-01  1.14D-01  4.29D-02  1.95D+00    0.00000D+00

 ** RSPCTL MICROITERATION NUMBER    5

       No.  Residual tot.,    conf., and orb.    Bnorm      Frequency 
      ----------------------------------------------------------------
         1    5.83832D-02  3.57D-02  4.62D-02  1.96D+00    0.00000D+00

 ** RSPCTL MICROITERATION NUMBER    6

       No.  Residual tot.,    conf., and orb.    Bnorm      Frequency 
      ----------------------------------------------------------------
         1    4.29277D-02  4.02D-02  1.52D-02  1.99D+00    0.00000D+00

 ** RSPCTL MICROITERATION NUMBER    7

       No.  Residual tot.,    conf., and orb.    Bnorm      Frequency 
      ----------------------------------------------------------------
         1    2.34588D-02  1.51D-02  1.80D-02  2.00D+00    0.00000D+00

 ** RSPCTL MICROITERATION NUMBER    8

       No.  Residual tot.,    conf., and orb.    Bnorm      Frequency 
      ----------------------------------------------------------------
         1    2.03418D-02  1.79D-02  9.65D-03  2.02D+00    0.00000D+00

 ** RSPCTL MICROITERATION NUMBER    9

       No.  Residual tot.,    conf., and orb.    Bnorm      Frequency 
      ----------------------------------------------------------------
         1    1.24916D-02  5.73D-03  1.11D-02  2.02D+00    0.00000D+00

 ** RSPCTL MICROITERATION NUMBER   10

       No.  Residual tot.,    conf., and orb.    Bnorm      Frequency 
      ----------------------------------------------------------------
         1    9.50155D-03  8.07D-03  5.02D-03  2.03D+00    0.00000D+00

 ** RSPCTL MICROITERATION NUMBER   11

       No.  Residual tot.,    conf., and orb.    Bnorm      Frequency 
      ----------------------------------------------------------------
         1    6.54616D-03  2.35D-03  6.11D-03  2.04D+00    0.00000D+00

 ** RSPCTL MICROITERATION NUMBER   12

       No.  Residual tot.,    conf., and orb.    Bnorm      Frequency 
      ----------------------------------------------------------------
         1    6.07603D-03  5.29D-03  2.99D-03  2.05D+00    0.00000D+00

 ** RSPCTL MICROITERATION NUMBER   13

       No.  Residual tot.,    conf., and orb.    Bnorm      Frequency 
      ----------------------------------------------------------------
         1    4.32493D-03  1.73D-03  3.97D-03  2.05D+00    0.00000D+00

 ** RSPCTL MICROITERATION NUMBER   14

       No.  Residual tot.,    conf., and orb.    Bnorm      Frequency 
      ----------------------------------------------------------------
         1    4.14407D-03  3.60D-03  2.06D-03  2.06D+00    0.00000D+00

 ** RSPCTL MICROITERATION NUMBER   15

       No.  Residual tot.,    conf., and orb.    Bnorm      Frequency 
      ----------------------------------------------------------------
         1    2.95184D-03  1.20D-03  2.70D-03  2.06D+00    0.00000D+00

 ** RSPCTL MICROITERATION NUMBER   16

       No.  Residual tot.,    conf., and orb.    Bnorm      Frequency 
      ----------------------------------------------------------------
         1    2.45028D-03  2.13D-03  1.22D-03  2.06D+00    0.00000D+00

 ** RSPCTL MICROITERATION NUMBER   17

       No.  Residual tot.,    conf., and orb.    Bnorm      Frequency 
      ----------------------------------------------------------------
         1    1.67696D-03  6.47D-04  1.55D-03  2.06D+00    0.00000D+00

 *** THE REQUESTED    1 SOLUTION VECTORS CONVERGED

 Convergence of RSP solution vectors, threshold = 1.00D-03
 ---------------------------------------------------------------
 (dimension of paired reduced space:   36)
 RSP solution vector no.    1; norm of residual   8.12D-04

 *** RSPCTL MICROITERATIONS CONVERGED


 RSPLR -- linear response calculation for symmetry 1  ( A  )
 RSPLR -- operator label : AM031700
 RSPLR -- operator spin  :   0
 RSPLR -- frequencies    :     0.000000



 ---  SOLVING SETS OF LINEAR EQUATIONS FOR LINEAR RESPONSE PROPERTIES ---

 Operator symmetry = 1  ( A  ); triplet =   F


 ** RSPCTL MICROITERATION NUMBER    1

       No.  Residual tot.,    conf., and orb.    Bnorm      Frequency 
      ----------------------------------------------------------------
         1    2.46103D-01  1.81D-01  1.66D-01  6.51D-01    0.00000D+00

 ** RSPCTL MICROITERATION NUMBER    2

       No.  Residual tot.,    conf., and orb.    Bnorm      Frequency 
      ----------------------------------------------------------------
         1    1.93685D-01  4.87D-02  1.87D-01  7.17D-01    0.00000D+00

 ** RSPCTL MICROITERATION NUMBER    3

       No.  Residual tot.,    conf., and orb.    Bnorm      Frequency 
      ----------------------------------------------------------------
         1    7.38791D-02  5.87D-02  4.48D-02  8.17D-01    0.00000D+00

 ** RSPCTL MICROITERATION NUMBER    4

       No.  Residual tot.,    conf., and orb.    Bnorm      Frequency 
      ----------------------------------------------------------------
         1    5.31452D-02  1.78D-02  5.01D-02  8.33D-01    0.00000D+00

 ** RSPCTL MICROITERATION NUMBER    5

       No.  Residual tot.,    conf., and orb.    Bnorm      Frequency 
      ----------------------------------------------------------------
         1    2.47065D-02  2.17D-02  1.18D-02  8.63D-01    0.00000D+00

 ** RSPCTL MICROITERATION NUMBER    6

       No.  Residual tot.,    conf., and orb.    Bnorm      Frequency 
      ----------------------------------------------------------------
         1    1.59026D-02  8.48D-03  1.35D-02  8.68D-01    0.00000D+00

 ** RSPCTL MICROITERATION NUMBER    7

       No.  Residual tot.,    conf., and orb.    Bnorm      Frequency 
      ----------------------------------------------------------------
         1    1.06859D-02  9.60D-03  4.70D-03  8.73D-01    0.00000D+00

 ** RSPCTL MICROITERATION NUMBER    8

       No.  Residual tot.,    conf., and orb.    Bnorm      Frequency 
      ----------------------------------------------------------------
         1    5.83993D-03  2.98D-03  5.02D-03  8.75D-01    0.00000D+00

 ** RSPCTL MICROITERATION NUMBER    9

       No.  Residual tot.,    conf., and orb.    Bnorm      Frequency 
      ----------------------------------------------------------------
         1    4.23242D-03  3.52D-03  2.35D-03  8.80D-01    0.00000D+00

 ** RSPCTL MICROITERATION NUMBER   10

       No.  Residual tot.,    conf., and orb.    Bnorm      Frequency 
      ----------------------------------------------------------------
         1    2.90560D-03  1.08D-03  2.70D-03  8.80D-01    0.00000D+00

 ** RSPCTL MICROITERATION NUMBER   11

       No.  Residual tot.,    conf., and orb.    Bnorm      Frequency 
      ----------------------------------------------------------------
         1    2.51775D-03  1.85D-03  1.71D-03  8.84D-01    0.00000D+00

 ** RSPCTL MICROITERATION NUMBER   12

       No.  Residual tot.,    conf., and orb.    Bnorm      Frequency 
      ----------------------------------------------------------------
         1    2.04856D-03  5.62D-04  1.97D-03  8.84D-01    0.00000D+00

 ** RSPCTL MICROITERATION NUMBER   13

       No.  Residual tot.,    conf., and orb.    Bnorm      Frequency 
      ----------------------------------------------------------------
         1    1.78430D-03  1.33D-03  1.19D-03  8.87D-01    0.00000D+00

 ** RSPCTL MICROITERATION NUMBER   14

       No.  Residual tot.,    conf., and orb.    Bnorm      Frequency 
      ----------------------------------------------------------------
         1    1.54724D-03  4.10D-04  1.49D-03  8.88D-01    0.00000D+00

 ** RSPCTL MICROITERATION NUMBER   15

       No.  Residual tot.,    conf., and orb.    Bnorm      Frequency 
      ----------------------------------------------------------------
         1    1.31175D-03  1.03D-03  8.13D-04  8.90D-01    0.00000D+00

 ** RSPCTL MICROITERATION NUMBER   16

       No.  Residual tot.,    conf., and orb.    Bnorm      Frequency 
      ----------------------------------------------------------------
         1    1.05809D-03  2.89D-04  1.02D-03  8.90D-01    0.00000D+00

 ** RSPCTL MICROITERATION NUMBER   17

       No.  Residual tot.,    conf., and orb.    Bnorm      Frequency 
      ----------------------------------------------------------------
         1    1.06087D-03  6.70D-04  8.23D-04  8.91D-01    0.00000D+00

 ** RSPCTL MICROITERATION NUMBER   18

       No.  Residual tot.,    conf., and orb.    Bnorm      Frequency 
      ----------------------------------------------------------------
         1    1.19335D-03  9.09D-04  7.73D-04  8.91D-01    0.00000D+00

 ** RSPCTL MICROITERATION NUMBER   19

       No.  Residual tot.,    conf., and orb.    Bnorm      Frequency 
      ----------------------------------------------------------------
         1    9.11023D-04  2.74D-04  8.69D-04  8.91D-01    0.00000D+00

 ** RSPCTL MICROITERATION NUMBER   20

       No.  Residual tot.,    conf., and orb.    Bnorm      Frequency 
      ----------------------------------------------------------------
         1    1.06084D-03  5.12D-04  9.29D-04  8.91D-01    0.00000D+00

 ** RSPCTL MICROITERATION NUMBER   21

       No.  Residual tot.,    conf., and orb.    Bnorm      Frequency 
      ----------------------------------------------------------------
         1    1.60167D-03  8.00D-04  1.39D-03  8.91D-01    0.00000D+00

 ** RSPCTL MICROITERATION NUMBER   22

       No.  Residual tot.,    conf., and orb.    Bnorm      Frequency 
      ----------------------------------------------------------------
         1    1.13799D-03  9.34D-04  6.50D-04  8.91D-01    0.00000D+00

 ** RSPCTL MICROITERATION NUMBER   23

       No.  Residual tot.,    conf., and orb.    Bnorm      Frequency 
      ----------------------------------------------------------------
         1    9.24943D-04  4.56D-04  8.05D-04  8.91D-01    0.00000D+00

 ** RSPCTL MICROITERATION NUMBER   24

       No.  Residual tot.,    conf., and orb.    Bnorm      Frequency 
      ----------------------------------------------------------------
         1    6.10365D-04  5.65D-04  2.31D-04  8.91D-01    0.00000D+00

 *** THE REQUESTED    1 SOLUTION VECTORS CONVERGED

 Convergence of RSP solution vectors, threshold = 1.00D-03
 ---------------------------------------------------------------
 (dimension of paired reduced space:   50)
 RSP solution vector no.    1; norm of residual   6.85D-04

 *** RSPCTL MICROITERATIONS CONVERGED


 RSPLR -- linear response calculation for symmetry 1  ( A  )
 RSPLR -- operator label : AM040100
 RSPLR -- operator spin  :   0
 RSPLR -- frequencies    :     0.000000



 ---  SOLVING SETS OF LINEAR EQUATIONS FOR LINEAR RESPONSE PROPERTIES ---

 Operator symmetry = 1  ( A  ); triplet =   F


 ** RSPCTL MICROITERATION NUMBER    1

       No.  Residual tot.,    conf., and orb.    Bnorm      Frequency 
      ----------------------------------------------------------------
         1    2.16746D-01  9.49D-02  1.95D-01  4.44D-01    0.00000D+00

 ** RSPCTL MICROITERATION NUMBER    2

       No.  Residual tot.,    conf., and orb.    Bnorm      Frequency 
      ----------------------------------------------------------------
         1    1.11508D-01  9.83D-02  5.27D-02  5.21D-01    0.00000D+00

 ** RSPCTL MICROITERATION NUMBER    3

       No.  Residual tot.,    conf., and orb.    Bnorm      Frequency 
      ----------------------------------------------------------------
         1    8.06722D-02  3.70D-02  7.17D-02  5.36D-01    0.00000D+00

 ** RSPCTL MICROITERATION NUMBER    4

       No.  Residual tot.,    conf., and orb.    Bnorm      Frequency 
      ----------------------------------------------------------------
         1    5.06756D-02  4.51D-02  2.31D-02  5.81D-01    0.00000D+00

 ** RSPCTL MICROITERATION NUMBER    5

       No.  Residual tot.,    conf., and orb.    Bnorm      Frequency 
      ----------------------------------------------------------------
         1    3.14762D-02  1.55D-02  2.74D-02  5.86D-01    0.00000D+00

 ** RSPCTL MICROITERATION NUMBER    6

       No.  Residual tot.,    conf., and orb.    Bnorm      Frequency 
      ----------------------------------------------------------------
         1    2.05807D-02  1.72D-02  1.13D-02  6.21D-01    0.00000D+00

 ** RSPCTL MICROITERATION NUMBER    7

       No.  Residual tot.,    conf., and orb.    Bnorm      Frequency 
      ----------------------------------------------------------------
         1    1.28724D-02  4.66D-03  1.20D-02  6.24D-01    0.00000D+00

 ** RSPCTL MICROITERATION NUMBER    8

       No.  Residual tot.,    conf., and orb.    Bnorm      Frequency 
      ----------------------------------------------------------------
         1    8.28848D-03  6.39D-03  5.28D-03  6.46D-01    0.00000D+00

 ** RSPCTL MICROITERATION NUMBER    9

       No.  Residual tot.,    conf., and orb.    Bnorm      Frequency 
      ----------------------------------------------------------------
         1    5.95848D-03  1.64D-03  5.73D-03  6.49D-01    0.00000D+00

 ** RSPCTL MICROITERATION NUMBER   10

       No.  Residual tot.,    conf., and orb.    Bnorm      Frequency 
      ----------------------------------------------------------------
         1    5.78987D-03  2.75D-03  5.10D-03  6.62D-01    0.00000D+00

 ** RSPCTL MICROITERATION NUMBER   11

       No.  Residual tot.,    conf., and orb.    Bnorm      Frequency 
      ----------------------------------------------------------------
         1    1.21815D-02  4.37D-03  1.14D-02  6.80D-01    0.00000D+00

 ** RSPCTL MICROITERATION NUMBER   12

       No.  Residual tot.,    conf., and orb.    Bnorm      Frequency 
      ----------------------------------------------------------------
         1    1.34691D-02  6.82D-03  1.16D-02  7.06D-01    0.00000D+00

 ** RSPCTL MICROITERATION NUMBER   13

       No.  Residual tot.,    conf., and orb.    Bnorm      Frequency 
      ----------------------------------------------------------------
         1    1.04549D-02  8.33D-03  6.31D-03  7.22D-01    0.00000D+00

 ** RSPCTL MICROITERATION NUMBER   14

       No.  Residual tot.,    conf., and orb.    Bnorm      Frequency 
      ----------------------------------------------------------------
         1    8.71219D-03  3.87D-03  7.81D-03  7.41D-01    0.00000D+00

 ** RSPCTL MICROITERATION NUMBER   15

       No.  Residual tot.,    conf., and orb.    Bnorm      Frequency 
      ----------------------------------------------------------------
         1    5.42952D-03  4.72D-03  2.68D-03  7.50D-01    0.00000D+00

 ** RSPCTL MICROITERATION NUMBER   16

       No.  Residual tot.,    conf., and orb.    Bnorm      Frequency 
      ----------------------------------------------------------------
         1    3.16507D-03  1.23D-03  2.92D-03  7.52D-01    0.00000D+00

 ** RSPCTL MICROITERATION NUMBER   17

       No.  Residual tot.,    conf., and orb.    Bnorm      Frequency 
      ----------------------------------------------------------------
         1    1.75378D-03  1.41D-03  1.04D-03  7.54D-01    0.00000D+00

 ** RSPCTL MICROITERATION NUMBER   18

       No.  Residual tot.,    conf., and orb.    Bnorm      Frequency 
      ----------------------------------------------------------------
         1    1.13389D-03  3.30D-04  1.08D-03  7.54D-01    0.00000D+00

 ** RSPCTL MICROITERATION NUMBER   19

       No.  Residual tot.,    conf., and orb.    Bnorm      Frequency 
      ----------------------------------------------------------------
         1    6.18556D-04  4.55D-04  4.19D-04  7.55D-01    0.00000D+00

 *** THE REQUESTED    1 SOLUTION VECTORS CONVERGED

 Convergence of RSP solution vectors, threshold = 1.00D-03
 ---------------------------------------------------------------
 (dimension of paired reduced space:   40)
 RSP solution vector no.    1; norm of residual   8.19D-04

 *** RSPCTL MICROITERATIONS CONVERGED


 RSPLR -- linear response calculation for symmetry 1  ( A  )
 RSPLR -- operator label : AM050100
 RSPLR -- operator spin  :   0
 RSPLR -- frequencies    :     0.000000



 ---  SOLVING SETS OF LINEAR EQUATIONS FOR LINEAR RESPONSE PROPERTIES ---

 Operator symmetry = 1  ( A  ); triplet =   F


 ** RSPCTL MICROITERATION NUMBER    1

       No.  Residual tot.,    conf., and orb.    Bnorm      Frequency 
      ----------------------------------------------------------------
         1    3.38193D-01  1.32D-01  3.11D-01  5.44D-01    0.00000D+00

 ** RSPCTL MICROITERATION NUMBER    2

       No.  Residual tot.,    conf., and orb.    Bnorm      Frequency 
      ----------------------------------------------------------------
         1    1.69628D-01  1.57D-01  6.35D-02  7.86D-01    0.00000D+00

 ** RSPCTL MICROITERATION NUMBER    3

       No.  Residual tot.,    conf., and orb.    Bnorm      Frequency 
      ----------------------------------------------------------------
         1    7.43118D-02  2.96D-02  6.82D-02  8.08D-01    0.00000D+00

 ** RSPCTL MICROITERATION NUMBER    4

       No.  Residual tot.,    conf., and orb.    Bnorm      Frequency 
      ----------------------------------------------------------------
         1    4.03243D-02  3.34D-02  2.25D-02  8.35D-01    0.00000D+00

 ** RSPCTL MICROITERATION NUMBER    5

       No.  Residual tot.,    conf., and orb.    Bnorm      Frequency 
      ----------------------------------------------------------------
         1    2.56380D-02  9.04D-03  2.40D-02  8.38D-01    0.00000D+00

 ** RSPCTL MICROITERATION NUMBER    6

       No.  Residual tot.,    conf., and orb.    Bnorm      Frequency 
      ----------------------------------------------------------------
         1    1.29750D-02  1.11D-02  6.76D-03  8.34D-01    0.00000D+00

 ** RSPCTL MICROITERATION NUMBER    7

       No.  Residual tot.,    conf., and orb.    Bnorm      Frequency 
      ----------------------------------------------------------------
         1    8.19702D-03  3.24D-03  7.53D-03  8.34D-01    0.00000D+00

 ** RSPCTL MICROITERATION NUMBER    8

       No.  Residual tot.,    conf., and orb.    Bnorm      Frequency 
      ----------------------------------------------------------------
         1    5.65194D-03  4.37D-03  3.58D-03  8.31D-01    0.00000D+00

 ** RSPCTL MICROITERATION NUMBER    9

       No.  Residual tot.,    conf., and orb.    Bnorm      Frequency 
      ----------------------------------------------------------------
         1    3.93380D-03  1.23D-03  3.74D-03  8.31D-01    0.00000D+00

 ** RSPCTL MICROITERATION NUMBER   10

       No.  Residual tot.,    conf., and orb.    Bnorm      Frequency 
      ----------------------------------------------------------------
         1    6.08067D-03  2.31D-03  5.62D-03  8.31D-01    0.00000D+00

 ** RSPCTL MICROITERATION NUMBER   11

       No.  Residual tot.,    conf., and orb.    Bnorm      Frequency 
      ----------------------------------------------------------------
         1    9.23560D-03  4.91D-03  7.82D-03  8.47D-01    0.00000D+00

 ** RSPCTL MICROITERATION NUMBER   12

       No.  Residual tot.,    conf., and orb.    Bnorm      Frequency 
      ----------------------------------------------------------------
         1    9.09550D-03  6.29D-03  6.57D-03  8.68D-01    0.00000D+00

 ** RSPCTL MICROITERATION NUMBER   13

       No.  Residual tot.,    conf., and orb.    Bnorm      Frequency 
      ----------------------------------------------------------------
         1    7.44561D-03  6.76D-03  3.12D-03  8.82D-01    0.00000D+00

 ** RSPCTL MICROITERATION NUMBER   14

       No.  Residual tot.,    conf., and orb.    Bnorm      Frequency 
      ----------------------------------------------------------------
         1    6.75953D-03  4.71D-03  4.85D-03  9.15D-01    0.00000D+00

 ** RSPCTL MICROITERATION NUMBER   15

       No.  Residual tot.,    conf., and orb.    Bnorm      Frequency 
      ----------------------------------------------------------------
         1    5.59799D-03  5.32D-03  1.73D-03  9.24D-01    0.00000D+00

 ** RSPCTL MICROITERATION NUMBER   16

       No.  Residual tot.,    conf., and orb.    Bnorm      Frequency 
      ----------------------------------------------------------------
         1    2.45278D-03  1.41D-03  2.00D-03  9.30D-01    0.00000D+00

 ** RSPCTL MICROITERATION NUMBER   17

       No.  Residual tot.,    conf., and orb.    Bnorm      Frequency 
      ----------------------------------------------------------------
         1    1.79329D-03  1.57D-03  8.67D-04  9.32D-01    0.00000D+00

 ** RSPCTL MICROITERATION NUMBER   18

       No.  Residual tot.,    conf., and orb.    Bnorm      Frequency 
      ----------------------------------------------------------------
         1    1.07151D-03  4.78D-04  9.59D-04  9.32D-01    0.00000D+00

 ** RSPCTL MICROITERATION NUMBER   19

       No.  Residual tot.,    conf., and orb.    Bnorm      Frequency 
      ----------------------------------------------------------------
         1    8.17317D-04  6.53D-04  4.91D-04  9.33D-01    0.00000D+00

 *** THE REQUESTED    1 SOLUTION VECTORS CONVERGED

 Convergence of RSP solution vectors, threshold = 1.00D-03
 ---------------------------------------------------------------
 (dimension of paired reduced space:   40)
 RSP solution vector no.    1; norm of residual   8.76D-04

 *** RSPCTL MICROITERATIONS CONVERGED


 RSPLR -- linear response calculation for symmetry 1  ( A  )
 RSPLR -- operator label : AM060100
 RSPLR -- operator spin  :   0
 RSPLR -- frequencies    :     0.000000



 ---  SOLVING SETS OF LINEAR EQUATIONS FOR LINEAR RESPONSE PROPERTIES ---

 Operator symmetry = 1  ( A  ); triplet =   F


 ** RSPCTL MICROITERATION NUMBER    1

       No.  Residual tot.,    conf., and orb.    Bnorm      Frequency 
      ----------------------------------------------------------------
         1    3.41994D-01  1.34D-01  3.15D-01  5.47D-01    0.00000D+00

 ** RSPCTL MICROITERATION NUMBER    2

       No.  Residual tot.,    conf., and orb.    Bnorm      Frequency 
      ----------------------------------------------------------------
         1    1.71239D-01  1.58D-01  6.61D-02  7.79D-01    0.00000D+00

 ** RSPCTL MICROITERATION NUMBER    3

       No.  Residual tot.,    conf., and orb.    Bnorm      Frequency 
      ----------------------------------------------------------------
         1    7.68630D-02  2.97D-02  7.09D-02  8.00D-01    0.00000D+00

 ** RSPCTL MICROITERATION NUMBER    4

       No.  Residual tot.,    conf., and orb.    Bnorm      Frequency 
      ----------------------------------------------------------------
         1    4.03286D-02  3.32D-02  2.29D-02  8.28D-01    0.00000D+00

 ** RSPCTL MICROITERATION NUMBER    5

       No.  Residual tot.,    conf., and orb.    Bnorm      Frequency 
      ----------------------------------------------------------------
         1    2.58001D-02  8.80D-03  2.43D-02  8.30D-01    0.00000D+00

 ** RSPCTL MICROITERATION NUMBER    6

       No.  Residual tot.,    conf., and orb.    Bnorm      Frequency 
      ----------------------------------------------------------------
         1    1.29498D-02  1.09D-02  7.02D-03  8.28D-01    0.00000D+00

 ** RSPCTL MICROITERATION NUMBER    7

       No.  Residual tot.,    conf., and orb.    Bnorm      Frequency 
      ----------------------------------------------------------------
         1    8.32344D-03  3.24D-03  7.67D-03  8.29D-01    0.00000D+00

 ** RSPCTL MICROITERATION NUMBER    8

       No.  Residual tot.,    conf., and orb.    Bnorm      Frequency 
      ----------------------------------------------------------------
         1    5.67335D-03  4.41D-03  3.57D-03  8.25D-01    0.00000D+00

 ** RSPCTL MICROITERATION NUMBER    9

       No.  Residual tot.,    conf., and orb.    Bnorm      Frequency 
      ----------------------------------------------------------------
         1    4.00067D-03  1.29D-03  3.79D-03  8.24D-01    0.00000D+00

 ** RSPCTL MICROITERATION NUMBER   10

       No.  Residual tot.,    conf., and orb.    Bnorm      Frequency 
      ----------------------------------------------------------------
         1    5.91615D-03  2.44D-03  5.39D-03  8.25D-01    0.00000D+00

 ** RSPCTL MICROITERATION NUMBER   11

       No.  Residual tot.,    conf., and orb.    Bnorm      Frequency 
      ----------------------------------------------------------------
         1    9.04642D-03  4.94D-03  7.58D-03  8.43D-01    0.00000D+00

 ** RSPCTL MICROITERATION NUMBER   12

       No.  Residual tot.,    conf., and orb.    Bnorm      Frequency 
      ----------------------------------------------------------------
         1    9.32850D-03  6.36D-03  6.82D-03  8.66D-01    0.00000D+00

 ** RSPCTL MICROITERATION NUMBER   13

       No.  Residual tot.,    conf., and orb.    Bnorm      Frequency 
      ----------------------------------------------------------------
         1    7.60309D-03  6.88D-03  3.23D-03  8.82D-01    0.00000D+00

 ** RSPCTL MICROITERATION NUMBER   14

       No.  Residual tot.,    conf., and orb.    Bnorm      Frequency 
      ----------------------------------------------------------------
         1    6.85409D-03  4.81D-03  4.89D-03  9.18D-01    0.00000D+00

 ** RSPCTL MICROITERATION NUMBER   15

       No.  Residual tot.,    conf., and orb.    Bnorm      Frequency 
      ----------------------------------------------------------------
         1    5.74604D-03  5.49D-03  1.71D-03  9.28D-01    0.00000D+00

 ** RSPCTL MICROITERATION NUMBER   16

       No.  Residual tot.,    conf., and orb.    Bnorm      Frequency 
      ----------------------------------------------------------------
         1    2.69613D-03  1.78D-03  2.03D-03  9.36D-01    0.00000D+00

 ** RSPCTL MICROITERATION NUMBER   17

       No.  Residual tot.,    conf., and orb.    Bnorm      Frequency 
      ----------------------------------------------------------------
         1    2.10573D-03  1.92D-03  8.72D-04  9.38D-01    0.00000D+00

 ** RSPCTL MICROITERATION NUMBER   18

       No.  Residual tot.,    conf., and orb.    Bnorm      Frequency 
      ----------------------------------------------------------------
         1    1.13586D-03  6.33D-04  9.43D-04  9.39D-01    0.00000D+00

 ** RSPCTL MICROITERATION NUMBER   19

       No.  Residual tot.,    conf., and orb.    Bnorm      Frequency 
      ----------------------------------------------------------------
         1    9.74831D-04  8.28D-04  5.15D-04  9.40D-01    0.00000D+00

 ** RSPCTL MICROITERATION NUMBER   20

       No.  Residual tot.,    conf., and orb.    Bnorm      Frequency 
      ----------------------------------------------------------------
         1    6.87979D-04  2.93D-04  6.22D-04  9.40D-01    0.00000D+00

 *** THE REQUESTED    1 SOLUTION VECTORS CONVERGED

 Convergence of RSP solution vectors, threshold = 1.00D-03
 ---------------------------------------------------------------
 (dimension of paired reduced space:   42)
 RSP solution vector no.    1; norm of residual   7.32D-04

 *** RSPCTL MICROITERATIONS CONVERGED


 RSPLR -- linear response calculation for symmetry 1  ( A  )
 RSPLR -- operator label : AM01060x
 RSPLR -- operator spin  :   0
 RSPLR -- frequencies    :     0.000000



 ---  SOLVING SETS OF LINEAR EQUATIONS FOR LINEAR RESPONSE PROPERTIES ---

 Operator symmetry = 1  ( A  ); triplet =   F


 ** RSPCTL MICROITERATION NUMBER    1

       No.  Residual tot.,    conf., and orb.    Bnorm      Frequency 
      ----------------------------------------------------------------
         1    3.93233D-01  1.57D-01  3.60D-01  8.29D-01    0.00000D+00

 ** RSPCTL MICROITERATION NUMBER    2

       No.  Residual tot.,    conf., and orb.    Bnorm      Frequency 
      ----------------------------------------------------------------
         1    1.80603D-01  1.68D-01  6.69D-02  9.95D-01    0.00000D+00

 ** RSPCTL MICROITERATION NUMBER    3

       No.  Residual tot.,    conf., and orb.    Bnorm      Frequency 
      ----------------------------------------------------------------
         1    9.41912D-02  4.60D-02  8.22D-02  1.02D+00    0.00000D+00

 ** RSPCTL MICROITERATION NUMBER    4

       No.  Residual tot.,    conf., and orb.    Bnorm      Frequency 
      ----------------------------------------------------------------
         1    5.82969D-02  5.46D-02  2.05D-02  1.09D+00    0.00000D+00

 ** RSPCTL MICROITERATION NUMBER    5

       No.  Residual tot.,    conf., and orb.    Bnorm      Frequency 
      ----------------------------------------------------------------
         1    3.30933D-02  1.99D-02  2.64D-02  1.10D+00    0.00000D+00

 ** RSPCTL MICROITERATION NUMBER    6

       No.  Residual tot.,    conf., and orb.    Bnorm      Frequency 
      ----------------------------------------------------------------
         1    2.42053D-02  2.30D-02  7.55D-03  1.12D+00    0.00000D+00

 ** RSPCTL MICROITERATION NUMBER    7

       No.  Residual tot.,    conf., and orb.    Bnorm      Frequency 
      ----------------------------------------------------------------
         1    1.19741D-02  8.37D-03  8.56D-03  1.12D+00    0.00000D+00

 ** RSPCTL MICROITERATION NUMBER    8

       No.  Residual tot.,    conf., and orb.    Bnorm      Frequency 
      ----------------------------------------------------------------
         1    9.92383D-03  9.52D-03  2.79D-03  1.13D+00    0.00000D+00

 ** RSPCTL MICROITERATION NUMBER    9

       No.  Residual tot.,    conf., and orb.    Bnorm      Frequency 
      ----------------------------------------------------------------
         1    4.94858D-03  3.18D-03  3.79D-03  1.13D+00    0.00000D+00

 ** RSPCTL MICROITERATION NUMBER   10

       No.  Residual tot.,    conf., and orb.    Bnorm      Frequency 
      ----------------------------------------------------------------
         1    4.11298D-03  3.83D-03  1.50D-03  1.14D+00    0.00000D+00

 ** RSPCTL MICROITERATION NUMBER   11

       No.  Residual tot.,    conf., and orb.    Bnorm      Frequency 
      ----------------------------------------------------------------
         1    2.28335D-03  1.29D-03  1.89D-03  1.14D+00    0.00000D+00

 ** RSPCTL MICROITERATION NUMBER   12

       No.  Residual tot.,    conf., and orb.    Bnorm      Frequency 
      ----------------------------------------------------------------
         1    1.85368D-03  1.70D-03  7.47D-04  1.14D+00    0.00000D+00

 ** RSPCTL MICROITERATION NUMBER   13

       No.  Residual tot.,    conf., and orb.    Bnorm      Frequency 
      ----------------------------------------------------------------
         1    1.02498D-03  4.72D-04  9.10D-04  1.14D+00    0.00000D+00

 *** THE REQUESTED    1 SOLUTION VECTORS CONVERGED

 Convergence of RSP solution vectors, threshold = 1.00D-03
 ---------------------------------------------------------------
 (dimension of paired reduced space:   28)
 RSP solution vector no.    1; norm of residual   8.96D-04

 *** RSPCTL MICROITERATIONS CONVERGED


 RSPLR -- linear response calculation for symmetry 1  ( A  )
 RSPLR -- operator label : AM01060y
 RSPLR -- operator spin  :   0
 RSPLR -- frequencies    :     0.000000



 ---  SOLVING SETS OF LINEAR EQUATIONS FOR LINEAR RESPONSE PROPERTIES ---

 Operator symmetry = 1  ( A  ); triplet =   F


 ** RSPCTL MICROITERATION NUMBER    1

       No.  Residual tot.,    conf., and orb.    Bnorm      Frequency 
      ----------------------------------------------------------------
         1    4.16961D-01  1.35D-01  3.94D-01  8.05D-01    0.00000D+00

 ** RSPCTL MICROITERATION NUMBER    2

       No.  Residual tot.,    conf., and orb.    Bnorm      Frequency 
      ----------------------------------------------------------------
         1    1.88904D-01  1.63D-01  9.60D-02  1.05D+00    0.00000D+00

 ** RSPCTL MICROITERATION NUMBER    3

       No.  Residual tot.,    conf., and orb.    Bnorm      Frequency 
      ----------------------------------------------------------------
         1    1.44789D-01  5.80D-02  1.33D-01  1.08D+00    0.00000D+00

 ** RSPCTL MICROITERATION NUMBER    4

       No.  Residual tot.,    conf., and orb.    Bnorm      Frequency 
      ----------------------------------------------------------------
         1    8.31038D-02  6.82D-02  4.74D-02  1.19D+00    0.00000D+00

 ** RSPCTL MICROITERATION NUMBER    5

       No.  Residual tot.,    conf., and orb.    Bnorm      Frequency 
      ----------------------------------------------------------------
         1    5.64005D-02  2.28D-02  5.16D-02  1.20D+00    0.00000D+00

 ** RSPCTL MICROITERATION NUMBER    6

       No.  Residual tot.,    conf., and orb.    Bnorm      Frequency 
      ----------------------------------------------------------------
         1    4.20288D-02  2.97D-02  2.98D-02  1.27D+00    0.00000D+00

 ** RSPCTL MICROITERATION NUMBER    7

       No.  Residual tot.,    conf., and orb.    Bnorm      Frequency 
      ----------------------------------------------------------------
         1    4.80490D-02  3.41D-02  3.38D-02  1.35D+00    0.00000D+00

 ** RSPCTL MICROITERATION NUMBER    8

       No.  Residual tot.,    conf., and orb.    Bnorm      Frequency 
      ----------------------------------------------------------------
         1    3.71641D-02  9.57D-03  3.59D-02  1.37D+00    0.00000D+00

 ** RSPCTL MICROITERATION NUMBER    9

       No.  Residual tot.,    conf., and orb.    Bnorm      Frequency 
      ----------------------------------------------------------------
         1    4.88149D-02  2.02D-02  4.44D-02  1.51D+00    0.00000D+00

 ** RSPCTL MICROITERATION NUMBER   10

       No.  Residual tot.,    conf., and orb.    Bnorm      Frequency 
      ----------------------------------------------------------------
         1    6.60995D-02  3.26D-02  5.75D-02  1.77D+00    0.00000D+00

 ** RSPCTL MICROITERATION NUMBER   11

       No.  Residual tot.,    conf., and orb.    Bnorm      Frequency 
      ----------------------------------------------------------------
         1    4.88943D-02  3.78D-02  3.11D-02  1.94D+00    0.00000D+00

 ** RSPCTL MICROITERATION NUMBER   12

       No.  Residual tot.,    conf., and orb.    Bnorm      Frequency 
      ----------------------------------------------------------------
         1    4.31226D-02  1.95D-02  3.85D-02  2.12D+00    0.00000D+00

 ** RSPCTL MICROITERATION NUMBER   13

       No.  Residual tot.,    conf., and orb.    Bnorm      Frequency 
      ----------------------------------------------------------------
         1    2.91010D-02  2.50D-02  1.50D-02  2.22D+00    0.00000D+00

 ** RSPCTL MICROITERATION NUMBER   14

       No.  Residual tot.,    conf., and orb.    Bnorm      Frequency 
      ----------------------------------------------------------------
         1    1.80470D-02  6.66D-03  1.68D-02  2.25D+00    0.00000D+00

 ** RSPCTL MICROITERATION NUMBER   15

       No.  Residual tot.,    conf., and orb.    Bnorm      Frequency 
      ----------------------------------------------------------------
         1    9.64518D-03  7.89D-03  5.55D-03  2.26D+00    0.00000D+00

 ** RSPCTL MICROITERATION NUMBER   16

       No.  Residual tot.,    conf., and orb.    Bnorm      Frequency 
      ----------------------------------------------------------------
         1    6.22810D-03  2.06D-03  5.88D-03  2.27D+00    0.00000D+00

 ** RSPCTL MICROITERATION NUMBER   17

       No.  Residual tot.,    conf., and orb.    Bnorm      Frequency 
      ----------------------------------------------------------------
         1    4.74559D-03  3.26D-03  3.45D-03  2.27D+00    0.00000D+00

 ** RSPCTL MICROITERATION NUMBER   18

       No.  Residual tot.,    conf., and orb.    Bnorm      Frequency 
      ----------------------------------------------------------------
         1    4.39806D-03  4.12D-03  1.54D-03  2.27D+00    0.00000D+00

 ** RSPCTL MICROITERATION NUMBER   19

       No.  Residual tot.,    conf., and orb.    Bnorm      Frequency 
      ----------------------------------------------------------------
         1    2.47188D-03  1.25D-03  2.13D-03  2.27D+00    0.00000D+00

 ** RSPCTL MICROITERATION NUMBER   20

       No.  Residual tot.,    conf., and orb.    Bnorm      Frequency 
      ----------------------------------------------------------------
         1    2.70594D-03  2.24D-03  1.51D-03  2.27D+00    0.00000D+00

 ** RSPCTL MICROITERATION NUMBER   21

       No.  Residual tot.,    conf., and orb.    Bnorm      Frequency 
      ----------------------------------------------------------------
         1    2.06722D-03  7.57D-04  1.92D-03  2.27D+00    0.00000D+00

 *** THE REQUESTED    1 SOLUTION VECTORS CONVERGED

 Convergence of RSP solution vectors, threshold = 1.00D-03
 ---------------------------------------------------------------
 (dimension of paired reduced space:   44)
 RSP solution vector no.    1; norm of residual   9.10D-04

 *** RSPCTL MICROITERATIONS CONVERGED


 RSPLR -- linear response calculation for symmetry 1  ( A  )
 RSPLR -- operator label : AM01060z
 RSPLR -- operator spin  :   0
 RSPLR -- frequencies    :     0.000000



 ---  SOLVING SETS OF LINEAR EQUATIONS FOR LINEAR RESPONSE PROPERTIES ---

 Operator symmetry = 1  ( A  ); triplet =   F


 ** RSPCTL MICROITERATION NUMBER    1

       No.  Residual tot.,    conf., and orb.    Bnorm      Frequency 
      ----------------------------------------------------------------
         1    4.33507D-01  1.77D-01  3.96D-01  8.61D-01    0.00000D+00

 ** RSPCTL MICROITERATION NUMBER    2

       No.  Residual tot.,    conf., and orb.    Bnorm      Frequency 
      ----------------------------------------------------------------
         1    2.32310D-01  2.15D-01  8.79D-02  1.14D+00    0.00000D+00

 ** RSPCTL MICROITERATION NUMBER    3

       No.  Residual tot.,    conf., and orb.    Bnorm      Frequency 
      ----------------------------------------------------------------
         1    1.72095D-01  5.61D-02  1.63D-01  1.21D+00    0.00000D+00

 ** RSPCTL MICROITERATION NUMBER    4

       No.  Residual tot.,    conf., and orb.    Bnorm      Frequency 
      ----------------------------------------------------------------
         1    8.70786D-02  7.60D-02  4.25D-02  1.35D+00    0.00000D+00

 ** RSPCTL MICROITERATION NUMBER    5

       No.  Residual tot.,    conf., and orb.    Bnorm      Frequency 
      ----------------------------------------------------------------
         1    5.18284D-02  1.70D-02  4.89D-02  1.37D+00    0.00000D+00

 ** RSPCTL MICROITERATION NUMBER    6

       No.  Residual tot.,    conf., and orb.    Bnorm      Frequency 
      ----------------------------------------------------------------
         1    3.42537D-02  2.26D-02  2.58D-02  1.46D+00    0.00000D+00

 ** RSPCTL MICROITERATION NUMBER    7

       No.  Residual tot.,    conf., and orb.    Bnorm      Frequency 
      ----------------------------------------------------------------
         1    4.58365D-02  2.82D-02  3.61D-02  1.54D+00    0.00000D+00

 ** RSPCTL MICROITERATION NUMBER    8

       No.  Residual tot.,    conf., and orb.    Bnorm      Frequency 
      ----------------------------------------------------------------
         1    7.92392D-02  3.92D-02  6.89D-02  1.87D+00    0.00000D+00

 ** RSPCTL MICROITERATION NUMBER    9

       No.  Residual tot.,    conf., and orb.    Bnorm      Frequency 
      ----------------------------------------------------------------
         1    6.29647D-02  4.97D-02  3.87D-02  2.45D+00    0.00000D+00

 ** RSPCTL MICROITERATION NUMBER   10

       No.  Residual tot.,    conf., and orb.    Bnorm      Frequency 
      ----------------------------------------------------------------
         1    5.89787D-02  2.67D-02  5.26D-02  2.89D+00    0.00000D+00

 ** RSPCTL MICROITERATION NUMBER   11

       No.  Residual tot.,    conf., and orb.    Bnorm      Frequency 
      ----------------------------------------------------------------
         1    4.02209D-02  3.48D-02  2.02D-02  3.14D+00    0.00000D+00

 ** RSPCTL MICROITERATION NUMBER   12

       No.  Residual tot.,    conf., and orb.    Bnorm      Frequency 
      ----------------------------------------------------------------
         1    2.56374D-02  1.15D-02  2.29D-02  3.24D+00    0.00000D+00

 ** RSPCTL MICROITERATION NUMBER   13

       No.  Residual tot.,    conf., and orb.    Bnorm      Frequency 
      ----------------------------------------------------------------
         1    1.48110D-02  1.25D-02  8.01D-03  3.31D+00    0.00000D+00

 ** RSPCTL MICROITERATION NUMBER   14

       No.  Residual tot.,    conf., and orb.    Bnorm      Frequency 
      ----------------------------------------------------------------
         1    9.50582D-03  4.39D-03  8.43D-03  3.32D+00    0.00000D+00

 ** RSPCTL MICROITERATION NUMBER   15

       No.  Residual tot.,    conf., and orb.    Bnorm      Frequency 
      ----------------------------------------------------------------
         1    7.30750D-03  5.55D-03  4.76D-03  3.35D+00    0.00000D+00

 ** RSPCTL MICROITERATION NUMBER   16

       No.  Residual tot.,    conf., and orb.    Bnorm      Frequency 
      ----------------------------------------------------------------
         1    5.72257D-03  1.96D-03  5.38D-03  3.35D+00    0.00000D+00

 ** RSPCTL MICROITERATION NUMBER   17

       No.  Residual tot.,    conf., and orb.    Bnorm      Frequency 
      ----------------------------------------------------------------
         1    3.84387D-03  2.96D-03  2.45D-03  3.37D+00    0.00000D+00

 ** RSPCTL MICROITERATION NUMBER   18

       No.  Residual tot.,    conf., and orb.    Bnorm      Frequency 
      ----------------------------------------------------------------
         1    3.00135D-03  9.21D-04  2.86D-03  3.37D+00    0.00000D+00

 *** THE REQUESTED    1 SOLUTION VECTORS CONVERGED

 Convergence of RSP solution vectors, threshold = 1.00D-03
 ---------------------------------------------------------------
 (dimension of paired reduced space:   38)
 RSP solution vector no.    1; norm of residual   8.90D-04

 *** RSPCTL MICROITERATIONS CONVERGED


 RSPLR -- linear response calculation for symmetry 1  ( A  )
 RSPLR -- operator label : AM02170x
 RSPLR -- operator spin  :   0
 RSPLR -- frequencies    :     0.000000



 ---  SOLVING SETS OF LINEAR EQUATIONS FOR LINEAR RESPONSE PROPERTIES ---

 Operator symmetry = 1  ( A  ); triplet =   F


 ** RSPCTL MICROITERATION NUMBER    1

       No.  Residual tot.,    conf., and orb.    Bnorm      Frequency 
      ----------------------------------------------------------------
         1    1.04820D+00  3.90D-01  9.73D-01  1.74D+00    0.00000D+00

 ** RSPCTL MICROITERATION NUMBER    2

       No.  Residual tot.,    conf., and orb.    Bnorm      Frequency 
      ----------------------------------------------------------------
         1    4.94262D-01  4.44D-01  2.17D-01  2.54D+00    0.00000D+00

 ** RSPCTL MICROITERATION NUMBER    3

       No.  Residual tot.,    conf., and orb.    Bnorm      Frequency 
      ----------------------------------------------------------------
         1    3.81460D-01  1.82D-01  3.35D-01  2.65D+00    0.00000D+00

 ** RSPCTL MICROITERATION NUMBER    4

       No.  Residual tot.,    conf., and orb.    Bnorm      Frequency 
      ----------------------------------------------------------------
         1    2.56791D-01  2.35D-01  1.02D-01  3.32D+00    0.00000D+00

 ** RSPCTL MICROITERATION NUMBER    5

       No.  Residual tot.,    conf., and orb.    Bnorm      Frequency 
      ----------------------------------------------------------------
         1    1.46092D-01  7.48D-02  1.25D-01  3.44D+00    0.00000D+00

 ** RSPCTL MICROITERATION NUMBER    6

       No.  Residual tot.,    conf., and orb.    Bnorm      Frequency 
      ----------------------------------------------------------------
         1    1.41909D-01  1.15D-01  8.35D-02  4.05D+00    0.00000D+00

 ** RSPCTL MICROITERATION NUMBER    7

       No.  Residual tot.,    conf., and orb.    Bnorm      Frequency 
      ----------------------------------------------------------------
         1    1.13745D-01  3.60D-02  1.08D-01  4.21D+00    0.00000D+00

 ** RSPCTL MICROITERATION NUMBER    8

       No.  Residual tot.,    conf., and orb.    Bnorm      Frequency 
      ----------------------------------------------------------------
         1    9.93296D-02  8.57D-02  5.03D-02  4.84D+00    0.00000D+00

 ** RSPCTL MICROITERATION NUMBER    9

       No.  Residual tot.,    conf., and orb.    Bnorm      Frequency 
      ----------------------------------------------------------------
         1    8.11499D-02  2.93D-02  7.57D-02  5.15D+00    0.00000D+00

 ** RSPCTL MICROITERATION NUMBER   10

       No.  Residual tot.,    conf., and orb.    Bnorm      Frequency 
      ----------------------------------------------------------------
         1    6.15077D-02  5.56D-02  2.62D-02  5.59D+00    0.00000D+00

 ** RSPCTL MICROITERATION NUMBER   11

       No.  Residual tot.,    conf., and orb.    Bnorm      Frequency 
      ----------------------------------------------------------------
         1    4.22569D-02  1.75D-02  3.84D-02  5.77D+00    0.00000D+00

 ** RSPCTL MICROITERATION NUMBER   12

       No.  Residual tot.,    conf., and orb.    Bnorm      Frequency 
      ----------------------------------------------------------------
         1    3.29872D-02  2.94D-02  1.49D-02  5.92D+00    0.00000D+00

 ** RSPCTL MICROITERATION NUMBER   13

[...]

       No.  Residual tot.,    conf., and orb.    Bnorm      Frequency 
      ----------------------------------------------------------------
         1    9.45431D-03  3.75D-03  8.68D-03  8.10D-01    0.00000D+00

 ** RSPCTL MICROITERATION NUMBER    8

       No.  Residual tot.,    conf., and orb.    Bnorm      Frequency 
      ----------------------------------------------------------------
         1    7.48161D-03  5.37D-03  5.20D-03  8.13D-01    0.00000D+00

 ** RSPCTL MICROITERATION NUMBER    9

       No.  Residual tot.,    conf., and orb.    Bnorm      Frequency 
      ----------------------------------------------------------------
         1    5.83191D-03  1.39D-03  5.66D-03  8.15D-01    0.00000D+00

 ** RSPCTL MICROITERATION NUMBER   10

       No.  Residual tot.,    conf., and orb.    Bnorm      Frequency 
      ----------------------------------------------------------------
         1    8.35625D-03  3.27D-03  7.69D-03  8.20D-01    0.00000D+00

 ** RSPCTL MICROITERATION NUMBER   11

       No.  Residual tot.,    conf., and orb.    Bnorm      Frequency 
      ----------------------------------------------------------------
         1    1.23005D-02  5.77D-03  1.09D-02  8.44D-01    0.00000D+00

 ** RSPCTL MICROITERATION NUMBER   12

       No.  Residual tot.,    conf., and orb.    Bnorm      Frequency 
      ----------------------------------------------------------------
         1    1.11723D-02  7.50D-03  8.28D-03  8.63D-01    0.00000D+00

 ** RSPCTL MICROITERATION NUMBER   13

       No.  Residual tot.,    conf., and orb.    Bnorm      Frequency 
      ----------------------------------------------------------------
         1    8.92329D-03  8.20D-03  3.52D-03  8.69D-01    0.00000D+00

 ** RSPCTL MICROITERATION NUMBER   14

       No.  Residual tot.,    conf., and orb.    Bnorm      Frequency 
      ----------------------------------------------------------------
         1    9.01744D-03  6.64D-03  6.11D-03  9.07D-01    0.00000D+00

 ** RSPCTL MICROITERATION NUMBER   15

       No.  Residual tot.,    conf., and orb.    Bnorm      Frequency 
      ----------------------------------------------------------------
         1    6.74583D-03  1.68D-03  6.53D-03  9.12D-01    0.00000D+00

 ** RSPCTL MICROITERATION NUMBER   16

       No.  Residual tot.,    conf., and orb.    Bnorm      Frequency 
      ----------------------------------------------------------------
         1    2.86090D-03  2.23D-03  1.79D-03  9.21D-01    0.00000D+00

 ** RSPCTL MICROITERATION NUMBER   17

       No.  Residual tot.,    conf., and orb.    Bnorm      Frequency 
      ----------------------------------------------------------------
         1    2.18841D-03  8.09D-04  2.03D-03  9.22D-01    0.00000D+00

 ** RSPCTL MICROITERATION NUMBER   18

       No.  Residual tot.,    conf., and orb.    Bnorm      Frequency 
      ----------------------------------------------------------------
         1    1.26679D-03  1.06D-03  6.93D-04  9.23D-01    0.00000D+00

 ** RSPCTL MICROITERATION NUMBER   19

       No.  Residual tot.,    conf., and orb.    Bnorm      Frequency 
      ----------------------------------------------------------------
         1    8.53523D-04  3.30D-04  7.87D-04  9.24D-01    0.00000D+00

 *** THE REQUESTED    1 SOLUTION VECTORS CONVERGED

 Convergence of RSP solution vectors, threshold = 1.00D-03
 ---------------------------------------------------------------
 (dimension of paired reduced space:   40)
 RSP solution vector no.    1; norm of residual   9.24D-04

 *** RSPCTL MICROITERATIONS CONVERGED


           Final output of second order properties from linear response
           ------------------------------------------------------------


@ Spin symmetry of operators: singlet

 Note that minus the linear response function: - << A; B >>(omega) is printed.
 The results are of quadratic accuracy using Sellers formula.

@ FREQUENCY INDEPENDENT SECOND ORDER PROPERTIES

@ -<< AM010600 ; AM010600 >> =  1.122119728408E+00
@ -<< AM010600 ; AM021700 >> = -6.089317159481E-01
@ -<< AM010600 ; AM031700 >> = -6.774085863175E-03
@ -<< AM010600 ; AM040100 >> = -1.749695861283E-01
@ -<< AM010600 ; AM050100 >> = -1.657494874422E-01
@ -<< AM010600 ; AM060100 >> = -1.657008050683E-01
@ -<< AM010600 ; AM01060x >> =  8.341517390377E-02
@ -<< AM010600 ; AM01060y >> = -6.536480527008E-03
@ -<< AM010600 ; AM01060z >> =  8.765189238099E-04
@ -<< AM010600 ; AM02170x >> = -4.022891593906E-01
@ -<< AM010600 ; AM02170y >> = -1.639225482741E-03
@ -<< AM010600 ; AM02170z >> = -2.554122745601E-03
@ -<< AM010600 ; AM03170x >> =  2.565924381739E-02
@ -<< AM010600 ; AM03170y >> = -3.752245821689E-03
@ -<< AM010600 ; AM03170z >> =  3.497415291385E-04
@ -<< AM010600 ; AM04010x >> =  2.427540567689E-02
@ -<< AM010600 ; AM04010y >> = -1.293569053267E-01
@ -<< AM010600 ; AM04010z >> =  8.615668990108E-03
@ -<< AM010600 ; AM05010x >> =  2.326520044670E-02
@ -<< AM010600 ; AM05010y >> =  5.456383330650E-02
@ -<< AM010600 ; AM05010z >> = -1.117204322852E-01
@ -<< AM010600 ; AM06010x >> =  2.337077375514E-02
@ -<< AM010600 ; AM06010y >> =  6.884299894178E-02
@ -<< AM010600 ; AM06010z >> =  1.035822362212E-01
@ -<< AM021700 ; AM021700 >> =  1.174094106063E+00
@ -<< AM021700 ; AM031700 >> = -2.022473808182E-01
@ -<< AM021700 ; AM040100 >> = -1.236661866670E-01
@ -<< AM021700 ; AM050100 >> = -1.195314264207E-01
@ -<< AM021700 ; AM060100 >> = -1.197196124093E-01
@ -<< AM021700 ; AM01060x >> = -1.459288848696E-02
@ -<< AM021700 ; AM01060y >> = -4.137383209374E-03
@ -<< AM021700 ; AM01060z >> = -6.087101056620E-04
@ -<< AM021700 ; AM02170x >> =  7.070575757744E-01
@ -<< AM021700 ; AM02170y >> =  1.618283448590E-03
@ -<< AM021700 ; AM02170z >> =  1.965497899054E-03
@ -<< AM021700 ; AM03170x >> =  2.453928813732E-02
@ -<< AM021700 ; AM03170y >> =  7.201265197271E-04
@ -<< AM021700 ; AM03170z >> = -3.326463007671E-04
@ -<< AM021700 ; AM04010x >> =  3.214918587743E-02
@ -<< AM021700 ; AM04010y >> = -4.318841459472E-02
@ -<< AM021700 ; AM04010z >> =  2.783213320499E-03
@ -<< AM021700 ; AM05010x >> =  3.156913314975E-02
@ -<< AM021700 ; AM05010y >> =  1.869469108186E-02
@ -<< AM021700 ; AM05010z >> = -3.841778499226E-02
@ -<< AM021700 ; AM06010x >> =  3.139534137215E-02
@ -<< AM021700 ; AM06010y >> =  2.349669026777E-02
@ -<< AM021700 ; AM06010z >> =  3.530407171758E-02
@ -<< AM031700 ; AM031700 >> =  2.539849702766E-01
@ -<< AM031700 ; AM040100 >> = -1.462339767294E-02
@ -<< AM031700 ; AM050100 >> = -1.533179249097E-02
@ -<< AM031700 ; AM060100 >> = -1.500902853438E-02
@ -<< AM031700 ; AM01060x >> = -6.512513343411E-02
@ -<< AM031700 ; AM01060y >> = -1.656287730602E-03
@ -<< AM031700 ; AM01060z >> =  1.205689911590E-04
@ -<< AM031700 ; AM02170x >> = -1.255358135221E-01
@ -<< AM031700 ; AM02170y >> = -6.634200253270E-04
@ -<< AM031700 ; AM02170z >> = -8.085172802767E-04
@ -<< AM031700 ; AM03170x >> = -8.821749467493E-02
@ -<< AM031700 ; AM03170y >> = -3.195279967675E-03
@ -<< AM031700 ; AM03170z >> =  2.935253956850E-04
@ -<< AM031700 ; AM04010x >> = -1.493196045722E-02
@ -<< AM031700 ; AM04010y >> =  1.186329564050E-02
@ -<< AM031700 ; AM04010z >> = -7.397807336097E-04
@ -<< AM031700 ; AM05010x >> = -1.473291824704E-02
@ -<< AM031700 ; AM05010y >> = -5.598899097473E-03
@ -<< AM031700 ; AM05010z >> =  1.118545032934E-02
@ -<< AM031700 ; AM06010x >> = -1.449161547866E-02
@ -<< AM031700 ; AM06010y >> = -6.985597615469E-03
@ -<< AM031700 ; AM06010z >> = -1.019826501996E-02
@ -<< AM040100 ; AM040100 >> =  4.096390074046E-01
@ -<< AM040100 ; AM050100 >> = -4.819721685655E-02
@ -<< AM040100 ; AM060100 >> = -4.818222000240E-02
@ -<< AM040100 ; AM01060x >> = -1.024361775091E-03
@ -<< AM040100 ; AM01060y >> =  1.888932994007E-01
@ -<< AM040100 ; AM01060z >> = -1.236964802005E-02
@ -<< AM040100 ; AM02170x >> = -6.145006459064E-02
@ -<< AM040100 ; AM02170y >> = -9.579581594872E-03
@ -<< AM040100 ; AM02170z >> =  1.336380841610E-03
@ -<< AM040100 ; AM03170x >> =  1.356611429451E-02
@ -<< AM040100 ; AM03170y >> =  1.466715089757E-02
@ -<< AM040100 ; AM03170z >> = -9.641450679121E-04
@ -<< AM040100 ; AM04010x >> = -3.904538750022E-02
@ -<< AM040100 ; AM04010y >> =  2.029528226035E-01
@ -<< AM040100 ; AM04010z >> = -1.348392297302E-02
@ -<< AM040100 ; AM05010x >> = -1.322141933413E-03
@ -<< AM040100 ; AM05010y >> =  2.272203988578E-02
@ -<< AM040100 ; AM05010z >> = -1.304550560702E-02
@ -<< AM040100 ; AM06010x >> = -1.319258809923E-03
@ -<< AM040100 ; AM06010y >> =  2.421401025025E-02
@ -<< AM040100 ; AM06010z >> =  9.936159513008E-03
@ -<< AM050100 ; AM050100 >> =  3.949372680919E-01
@ -<< AM050100 ; AM060100 >> = -4.612925464952E-02
@ -<< AM050100 ; AM01060x >> = -1.147334639107E-03
@ -<< AM050100 ; AM01060y >> = -7.799240066579E-02
@ -<< AM050100 ; AM01060z >> =  1.606849459200E-01
@ -<< AM050100 ; AM02170x >> = -5.899678556498E-02
@ -<< AM050100 ; AM02170y >> =  4.897911677362E-03
@ -<< AM050100 ; AM02170z >> = -9.222528910135E-03
@ -<< AM050100 ; AM03170x >> =  1.201812350832E-02
@ -<< AM050100 ; AM03170y >> = -3.743575180375E-03
@ -<< AM050100 ; AM03170z >> =  8.189357408134E-03
@ -<< AM050100 ; AM04010x >> = -1.224931011917E-03
@ -<< AM050100 ; AM04010y >> = -2.017169790392E-02
@ -<< AM050100 ; AM04010z >> =  1.585057749906E-02
@ -<< AM050100 ; AM05010x >> = -3.746109512199E-02
@ -<< AM050100 ; AM05010y >> = -8.662041132722E-02
@ -<< AM050100 ; AM05010z >> =  1.766952833913E-01
@ -<< AM050100 ; AM06010x >> = -1.327080538085E-03
@ -<< AM050100 ; AM06010y >> = -4.318144519731E-04
@ -<< AM050100 ; AM06010z >> =  2.495020472970E-02
@ -<< AM060100 ; AM060100 >> =  3.947431292359E-01
@ -<< AM060100 ; AM01060x >> = -1.531710243127E-03
@ -<< AM060100 ; AM01060y >> = -9.857307002515E-02
@ -<< AM060100 ; AM01060z >> = -1.486912928671E-01
@ -<< AM060100 ; AM02170x >> = -5.877620335387E-02
@ -<< AM060100 ; AM02170y >> =  5.329859059008E-03
@ -<< AM060100 ; AM02170z >> =  9.297331786969E-03
@ -<< AM060100 ; AM03170x >> =  1.243488911757E-02
@ -<< AM060100 ; AM03170y >> = -4.685097833393E-03
@ -<< AM060100 ; AM03170z >> = -7.537904663033E-03
@ -<< AM060100 ; AM04010x >> = -1.222725493396E-03
@ -<< AM060100 ; AM04010y >> = -2.209932687680E-02
@ -<< AM060100 ; AM04010z >> = -1.302685251036E-02
@ -<< AM060100 ; AM05010x >> = -1.319592308711E-03
@ -<< AM060100 ; AM05010y >> = -3.760018521394E-03
@ -<< AM060100 ; AM05010z >> = -2.469666437121E-02
@ -<< AM060100 ; AM06010x >> = -3.762819899173E-02
@ -<< AM060100 ; AM06010y >> = -1.091355970868E-01
@ -<< AM060100 ; AM06010z >> = -1.635730361141E-01
@ -<< AM01060x ; AM01060x >> =  1.343675642900E+00
@ -<< AM01060x ; AM01060y >> =  1.816558644940E-03
@ -<< AM01060x ; AM01060z >> =  1.356827681824E-04
@ -<< AM01060x ; AM02170x >> = -4.060726722916E-01
@ -<< AM01060x ; AM02170y >> =  5.452760992652E-04
@ -<< AM01060x ; AM02170z >> = -3.104196999082E-04
@ -<< AM01060x ; AM03170x >> = -2.907460344587E-01
@ -<< AM01060x ; AM03170y >> = -9.369017754733E-04
@ -<< AM01060x ; AM03170z >> = -7.545673044726E-04
@ -<< AM01060x ; AM04010x >> =  1.308207558714E-01
@ -<< AM01060x ; AM04010y >> =  3.451552710639E-02
@ -<< AM01060x ; AM04010z >> = -2.393947098919E-03
@ -<< AM01060x ; AM05010x >> =  1.304161017757E-01
@ -<< AM01060x ; AM05010y >> = -1.480186711194E-02
@ -<< AM01060x ; AM05010z >> =  3.031068618780E-02
@ -<< AM01060x ; AM06010x >> =  1.304329764343E-01
@ -<< AM01060x ; AM06010y >> = -1.871111177485E-02
@ -<< AM01060x ; AM06010z >> = -2.820111874820E-02
@ -<< AM01060y ; AM01060y >> =  1.405362078751E+00
@ -<< AM01060y ; AM01060z >> =  8.695519178078E-04
@ -<< AM01060y ; AM02170x >> = -4.721233808387E-03
@ -<< AM01060y ; AM02170y >> =  2.793134744239E-01
@ -<< AM01060y ; AM02170z >> =  4.725163176409E-03
@ -<< AM01060y ; AM03170x >> = -3.162653731315E-03
@ -<< AM01060y ; AM03170y >> =  3.315681973180E-03
@ -<< AM01060y ; AM03170z >> = -1.474473360366E-04
@ -<< AM01060y ; AM04010x >> =  3.084733084863E-02
@ -<< AM01060y ; AM04010y >> =  1.056603500234E-01
@ -<< AM01060y ; AM04010z >> =  7.185228699783E-03
@ -<< AM01060y ; AM05010x >> = -1.358867253238E-02
@ -<< AM01060y ; AM05010y >> =  1.919599502892E-01
@ -<< AM01060y ; AM05010z >> =  4.255048739477E-02
@ -<< AM01060y ; AM06010x >> = -1.735676568208E-02
@ -<< AM01060y ; AM06010y >> =  1.794531046024E-01
@ -<< AM01060y ; AM06010z >> = -4.974071894576E-02
@ -<< AM01060z ; AM01060z >> =  1.416504767557E+00
@ -<< AM01060z ; AM02170x >> = -3.447190715936E-03
@ -<< AM01060z ; AM02170y >> =  2.497057715561E-06
@ -<< AM01060z ; AM02170z >> =  2.949209798266E-01
@ -<< AM01060z ; AM03170x >> =  1.262299198573E-03
@ -<< AM01060z ; AM03170y >> =  2.487682344003E-04
@ -<< AM01060z ; AM03170z >> =  4.490216545240E-03
@ -<< AM01060z ; AM04010x >> = -2.017424409421E-03
@ -<< AM01060z ; AM04010y >> =  7.213488643081E-03
@ -<< AM01060z ; AM04010z >> =  2.145042826656E-01
@ -<< AM01060z ; AM05010x >> =  2.795401185688E-02
@ -<< AM01060z ; AM05010y >> =  4.227730336721E-02
@ -<< AM01060z ; AM05010z >> =  1.257882194810E-01
@ -<< AM01060z ; AM06010x >> = -2.597308094429E-02
@ -<< AM01060z ; AM06010y >> = -4.938235991044E-02
@ -<< AM01060z ; AM06010z >> =  1.380042355789E-01
@ -<< AM02170x ; AM02170x >> =  5.970769992689E+00
@ -<< AM02170x ; AM02170y >> = -1.149284272398E-02
@ -<< AM02170x ; AM02170z >> = -5.203216828982E-02
@ -<< AM02170x ; AM03170x >> =  2.381875741629E-02
@ -<< AM02170x ; AM03170y >> =  9.581395720667E-04
@ -<< AM02170x ; AM03170z >> =  5.384153872715E-04
@ -<< AM02170x ; AM04010x >> = -8.171471723680E-03
@ -<< AM02170x ; AM04010y >> = -6.352564458225E-02
@ -<< AM02170x ; AM04010z >> =  4.375882993024E-03
@ -<< AM02170x ; AM05010x >> = -9.434575967034E-03
@ -<< AM02170x ; AM05010y >> =  2.718967313821E-02
@ -<< AM02170x ; AM05010z >> = -5.692766681463E-02
@ -<< AM02170x ; AM06010x >> = -9.327797254119E-03
@ -<< AM02170x ; AM06010y >> =  3.455120760122E-02
@ -<< AM02170x ; AM06010z >> =  5.283129002296E-02
@ -<< AM02170y ; AM02170y >> =  6.242973837060E+00
@ -<< AM02170y ; AM02170z >> =  1.020771230688E-02
@ -<< AM02170y ; AM03170x >> = -1.969743312561E-03
@ -<< AM02170y ; AM03170y >> = -1.935027389794E-02
@ -<< AM02170y ; AM03170z >> =  4.190126478781E-04
@ -<< AM02170y ; AM04010x >> =  2.588202095586E-02
@ -<< AM02170y ; AM04010y >> =  2.711432537571E-02
@ -<< AM02170y ; AM04010z >> = -1.479193567790E-03
@ -<< AM02170y ; AM05010x >> = -1.101755228909E-02
@ -<< AM02170y ; AM05010y >> =  6.405716666331E-03
@ -<< AM02170y ; AM05010z >> = -1.219958969432E-02
@ -<< AM02170y ; AM06010x >> = -1.513073443408E-02
@ -<< AM02170y ; AM06010y >> =  9.950207920355E-03
@ -<< AM02170y ; AM06010z >> =  1.392775483902E-02
@ -<< AM02170z ; AM02170z >> =  6.322015878427E+00
@ -<< AM02170z ; AM03170x >> = -2.724976494807E-03
@ -<< AM02170z ; AM03170y >> =  1.571560431930E-03
@ -<< AM02170z ; AM03170z >> = -1.793780101786E-02
@ -<< AM02170z ; AM04010x >> = -2.358773240266E-03
@ -<< AM02170z ; AM04010y >> = -1.708689858261E-03
@ -<< AM02170z ; AM04010z >> =  4.687786074812E-04
@ -<< AM02170z ; AM05010x >> =  2.408173690916E-02
@ -<< AM02170z ; AM05010y >> = -1.042096401417E-02
@ -<< AM02170z ; AM05010z >> =  2.370980759841E-02
@ -<< AM02170z ; AM06010x >> = -2.339234991974E-02
@ -<< AM02170z ; AM06010y >> =  1.357635233376E-02
@ -<< AM02170z ; AM06010z >> =  2.134168425857E-02
@ -<< AM03170x ; AM03170x >> =  6.279831787405E+00
@ -<< AM03170x ; AM03170y >> = -4.995522943582E-03
@ -<< AM03170x ; AM03170z >> = -5.551423509136E-03
@ -<< AM03170x ; AM04010x >> = -4.627197087153E-02
@ -<< AM03170x ; AM04010y >> =  5.597455845606E-02
@ -<< AM03170x ; AM04010z >> = -3.888652491135E-03
@ -<< AM03170x ; AM05010x >> = -4.630963336635E-02
@ -<< AM03170x ; AM05010y >> = -2.589377078189E-02
@ -<< AM03170x ; AM05010z >> =  5.158274581721E-02
@ -<< AM03170x ; AM06010x >> = -4.622433288432E-02
@ -<< AM03170x ; AM06010y >> = -3.248749519584E-02
@ -<< AM03170x ; AM06010z >> = -4.799578010735E-02
@ -<< AM03170y ; AM03170y >> =  6.779109616958E+00
@ -<< AM03170y ; AM03170z >> = -5.499015207140E-04
@ -<< AM03170y ; AM04010x >> = -5.296018399839E-02
@ -<< AM03170y ; AM04010y >> =  7.587934902712E-02
@ -<< AM03170y ; AM04010z >> = -3.997620160846E-03
@ -<< AM03170y ; AM05010x >> =  2.299632424455E-02
@ -<< AM03170y ; AM05010y >> =  2.847732165069E-02
@ -<< AM03170y ; AM05010z >> = -2.365734821689E-02
@ -<< AM03170y ; AM06010x >> =  2.887354134656E-02
@ -<< AM03170y ; AM06010y >> =  3.500815985190E-02
@ -<< AM03170y ; AM06010z >> =  2.724316019929E-02
@ -<< AM03170z ; AM03170z >> =  6.779782510585E+00
@ -<< AM03170z ; AM04010x >> =  3.608417956977E-03
@ -<< AM03170z ; AM04010y >> = -3.934271110120E-03
@ -<< AM03170z ; AM04010z >> =  1.738498459631E-02
@ -<< AM03170z ; AM05010x >> = -4.624446975943E-02
@ -<< AM03170z ; AM05010y >> = -2.361969757178E-02
@ -<< AM03170z ; AM05010z >> =  6.411913020571E-02
@ -<< AM03170z ; AM06010x >> =  4.275847665358E-02
@ -<< AM03170z ; AM06010y >> =  2.711252803024E-02
@ -<< AM03170z ; AM06010z >> =  5.684308737794E-02
@ -<< AM04010x ; AM04010x >> =  1.638806361874E-01
@ -<< AM04010x ; AM04010y >> = -2.163231558437E-02
@ -<< AM04010x ; AM04010z >> =  1.466746375177E-03
@ -<< AM04010x ; AM05010x >> = -3.550266043454E-03
@ -<< AM04010x ; AM05010y >> = -3.653498028555E-04
@ -<< AM04010x ; AM05010z >> = -1.791174601265E-03
@ -<< AM04010x ; AM06010x >> = -3.542095362341E-03
@ -<< AM04010x ; AM06010y >> = -1.354793450306E-04
@ -<< AM04010x ; AM06010z >> =  1.843860999385E-03
@ -<< AM04010y ; AM04010y >> =  2.912986634871E-01
@ -<< AM04010y ; AM04010z >> = -7.375577421925E-03
@ -<< AM04010y ; AM05010x >> = -1.609524698355E-03
@ -<< AM04010y ; AM05010y >> =  1.182800856905E-02
@ -<< AM04010y ; AM05010z >> = -6.910126471222E-03
@ -<< AM04010y ; AM06010x >> = -1.480268225195E-03
@ -<< AM04010y ; AM06010y >> =  1.335175356245E-02
@ -<< AM04010y ; AM06010z >> =  6.003464424533E-03
@ -<< AM04010z ; AM04010z >> =  1.812968203285E-01
@ -<< AM04010z ; AM05010x >> = -9.281610507917E-04
@ -<< AM04010z ; AM05010y >> = -5.606678710229E-03
@ -<< AM04010z ; AM05010z >> =  6.630146710079E-03
@ -<< AM04010z ; AM06010x >> =  1.156388081426E-03
@ -<< AM04010z ; AM06010y >> =  4.707890240679E-03
@ -<< AM04010z ; AM06010z >> =  5.065476307342E-03
@ -<< AM05010x ; AM05010x >> =  1.663126150829E-01
@ -<< AM05010x ; AM05010y >> =  9.775795550598E-03
@ -<< AM05010x ; AM05010z >> = -1.936037753842E-02
@ -<< AM05010x ; AM06010x >> = -3.381129757312E-03
@ -<< AM05010x ; AM06010y >> =  1.871714545991E-03
@ -<< AM05010x ; AM06010z >> =  7.025682723963E-04
@ -<< AM05010y ; AM05010y >> =  2.061065116935E-01
@ -<< AM05010y ; AM05010z >> = -4.607428186055E-02
@ -<< AM05010y ; AM06010x >> =  1.763483017197E-03
@ -<< AM05010y ; AM06010y >> =  3.383132387641E-03
@ -<< AM05010y ; AM06010z >> =  3.837160348998E-04
@ -<< AM05010z ; AM05010z >> =  2.765886803257E-01
@ -<< AM05010z ; AM06010x >> = -9.444232816051E-04
@ -<< AM05010z ; AM06010y >> =  1.197576179666E-03
@ -<< AM05010z ; AM06010z >> =  1.515484096720E-02
@ -<< AM06010x ; AM06010x >> =  1.662837380435E-01
@ -<< AM06010x ; AM06010y >> =  1.218664528202E-02
@ -<< AM06010x ; AM06010z >> =  1.785883599696E-02
@ -<< AM06010y ; AM06010y >> =  2.191879727766E-01
@ -<< AM06010y ; AM06010z >> =  5.353764183928E-02
@ -<< AM06010z ; AM06010z >> =  2.629984682631E-01


 Time used in linear response calculation is    104.17 CPU seconds for symmetry 1

  Total CPU  time used in RESPONSE:  2 minutes  1 second 
  Total wall time used in RESPONSE:  2 minutes  2 seconds


                   .-------------------------------------------.
                   | End of Dynamic Property Section (RESPONS) |
                   `-------------------------------------------'

  Total CPU  time used in DALTON:  2 minutes 41 seconds
  Total wall time used in DALTON:  2 minutes 43 seconds

 NOTE:    1 warnings have been issued.
 Check output, result, and error files for "WARNING".

 
     Date and time (Linux)  : Thu Feb 20 16:32:18 2025
     Host name              : s43n13.grendel.cscaa.dk                 
