

     ************************************************************************
     *************** Dalton - An Electronic Structure Program ***************
     ************************************************************************

    This is output from DALTON release Dalton2024.0-dev (2024)
         ( Web site: http://daltonprogram.org )

   ----------------------------------------------------------------------------

    NOTE:
     
    Dalton is an experimental code for the evaluation of molecular
    properties using (MC)SCF, DFT, CI, and CC wave functions.
    The authors accept no responsibility for the performance of
    the code or for the correctness of the results.
     
    The code (in whole or part) is provided under a licence and
    is not to be reproduced for further distribution without
    the written permission of the authors or their representatives.
     
    See the home page "http://daltonprogram.org" for further information.
     
    If results obtained with this code are published,
    the appropriate citations would be both of:
     
       K. Aidas, C. Angeli, K. L. Bak, V. Bakken,
       R. Bast, L. Boman, O. Christiansen, R. Cimiraglia,
       S. Coriani, P. Dahle, E. K. Dalskov, U. Ekstroem,
       T. Enevoldsen, J. J. Eriksen, P. Ettenhuber, B. Fernandez,
       L. Ferrighi, H. Fliegl, L. Frediani, K. Hald, A. Halkier,
       C. Haettig, H. Heiberg, T. Helgaker, A. C. Hennum,
       H. Hettema, E. Hjertenaes, S. Hoest, I.-M. Hoeyvik,
       M. F. Iozzi, B. Jansik, H. J. Aa. Jensen, D. Jonsson,
       P. Joergensen, J. Kauczor, S. Kirpekar,
       T. Kjaergaard, W. Klopper, S. Knecht, R. Kobayashi, H. Koch,
       J. Kongsted, A. Krapp, K. Kristensen, A. Ligabue,
       O. B. Lutnaes, J. I. Melo, K. V. Mikkelsen, R. H. Myhre,
       C. Neiss, C. B. Nielsen, P. Norman, J. Olsen,
       J. M. H. Olsen, A. Osted, M. J. Packer, F. Pawlowski,
       T. B. Pedersen, P. F. Provasi, S. Reine, Z. Rinkevicius,
       T. A. Ruden, K. Ruud, V. Rybkin, P. Salek, C. C. M. Samson,
       A. Sanchez de Meras, T. Saue, S. P. A. Sauer,
       B. Schimmelpfennig, K. Sneskov, A. H. Steindal,
       K. O. Sylvester-Hvid, P. R. Taylor, A. M. Teale,
       E. I. Tellgren, D. P. Tew, A. J. Thorvaldsen, L. Thoegersen,
       O. Vahtras, M. A. Watson, D. J. D. Wilson, M. Ziolkowski
       and H. Agren,
       "The Dalton quantum chemistry program system",
       WIREs Comput. Mol. Sci. 2014, 4:269-284 (doi: 10.1002/wcms.1172)
     
    and
     
       Dalton, a molecular electronic structure program,
       Release Dalton2024.0-dev (2024), see http://daltonprogram.org
   ----------------------------------------------------------------------------

    Authors in alphabetical order (Major contribution(s) in parenthesis):

  Kestutis Aidas,              Vilnius University,        Lithuania   (QM/MM)
  Celestino Angeli,            University of Ferrara,     Italy       (NEVPT2)
  Juan J. Aucar,               Northeast National UniversiArgentina   (LRESC, Relativistic Effects on EFG)
  Keld L. Bak,                 UNI-C,                     Denmark     (AOSOPPA, non-adiabatic coupling, magnetic properties)
  Vebjoern Bakken,             University of Oslo,        Norway      (DALTON; geometry optimizer, symmetry detection)
  Radovan Bast,                UiT The Arctic U. of NorwayNorway      (DALTON installation and execution frameworks)
  Pablo Baudin,                University of Valencia,    Spain       (Cholesky excitation energies)
  Linus Boman,                 NTNU,                      Norway      (Cholesky decomposition and subsystems)
  Bruno N. Cabral Tenorio,     Technical Univ. of Denmark,Denmark     (Lanczos-based CC methods)
  Ove Christiansen,            Aarhus University,         Denmark     (CC module)
  Renzo Cimiraglia,            University of Ferrara,     Italy       (NEVPT2)
  Sonia Coriani,               Technical Univ. of Denmark,Denmark     (CC and RESPONS modules)
  Janusz Cukras,               University of Warsaw,      Poland      (MChD in RESPONS)
  Paal Dahle,                  University of Oslo,        Norway      (Parallelization)
  Erik K. Dalskov,             UNI-C,                     Denmark     (SOPPA)
  Thomas Enevoldsen,           Univ. of Southern Denmark, Denmark     (SOPPA)
  Janus J. Eriksen,            Aarhus University,         Denmark     (Polarizable embedding, TDA)
  Rasmus Faber,                Technical Univ. of Denmark,Denmark     (Vib.avg. NMR w. SOPPA, parallel AO-SOPPA, CVS-CC and EOMCC)
  Tobias Fahleson,             KTH Stockholm,             Sweden      (Damped cubic response)
  Berta Fernandez,             U. of Santiago de CompostelSpain       (Doublet spin, ESR in RESPONS)
  Lara Ferrighi,               Aarhus University,         Denmark     (PCM Cubic response)
  Heike Fliegl,                University of Oslo,        Norway      (CCSD(R12))
  Luca Frediani,               UiT The Arctic U. of NorwayNorway      (PCM)
  Emmanuel Fromager,           Univ. Strasbourg,          France      (MC-srDFT)
  Bin Gao,                     UiT The Arctic U. of NorwayNorway      (Gen1Int library)
  Andre S. P. Gomes,           CNRS/Universite de Lille,  France      (Frozen density embedding)
  Christof Haettig,            Ruhr-University Bochum,    Germany     (CC module)
  Kasper Hald,                 Aarhus University,         Denmark     (CC module)
  Asger Halkier,               Aarhus University,         Denmark     (CC module)
  Frederik Beyer Hansen,       University of Copenhagen,  Denmark     (Parallel AO-SOPPA)
  Erik D. Hedegaard,           Univ. of Southern Denmark, Denmark     (Polarizable embedding, QM/MM, and MC-srDFT)
  Hanne Heiberg,               University of Oslo,        Norway      (Geometry analysis, selected one-electron integrals)
  Trygve Helgaker,             University of Oslo,        Norway      (DALTON; ABACUS, ERI, DFT modules, London, and much more)
  Alf Christian Hennum,        University of Oslo,        Norway      (Parity violation)
  Hinne Hettema,               University of Auckland,    New Zealand (Quadratic response in RESPONS; SIRIUS supersymmetry)
  Andreas E. Hillers-Bendtsen, University of Copenhagen,  Denmark     (MP3)
  Eirik Hjertenaes,            NTNU,                      Norway      (Cholesky decomposition)
  Nicolai Machholdt Hoeyer,    Aarhus University,         Denmark     (MP3)
  Pi A. B. Haase,              University of Copenhagen,  Denmark     (Triplet AO-SOPPA)
  Maria Francesca Iozzi,       University of Oslo,        Norway      (RPA)
  Christoph Jacob,             TU Braunschweig            Germany     (Frozen density embedding)
  Brano Jansik,                Technical Univ. of Ostrava Czech Rep.  (DFT cubic response)
  Hans Joergen Aa. Jensen,     Univ. of Southern Denmark, Denmark     (DALTON; SIRIUS, RESPONS, ABACUS, MC-srDFT, and much more)
  Dan Jonsson,                 UiT The Arctic U. of NorwayNorway      (Cubic response in RESPONS module)
  Poul Joergensen,             Aarhus University,         Denmark     (RESPONS, ABACUS, and CC modules)
  Maciej Kaminski,             University of Warsaw,      Poland      (CPPh in RESPONS)
  Joanna Kauczor,              Linkoeping University,     Sweden      (Complex polarization propagator (CPP) module)
  Sheela Kirpekar,             Univ. of Southern Denmark, Denmark     (Mass-velocity & Darwin integrals)
  Frederik Oersted Kjeldal,    Technical Univ. of Denmark,Denmark     (MP3)
  Erik Kjellgren,              Univ. of Southern Denmark, Denmark     (MC-srDFT)
  Wim Klopper,                 KIT Karlsruhe,             Germany     (R12 code in CC, SIRIUS, and ABACUS modules)
  Stefan Knecht,               ETH Zurich,                Switzerland (Parallel CI and MCSCF, MC-srDFT)
  Rika Kobayashi,              Australian National Univ., Australia   (DIIS in CC, London in MCSCF)
  Henrik Koch,                 NTNU,                      Norway      (CC module, Cholesky decomposition)
  Jacob Kongsted,              Univ. of Southern Denmark, Denmark     (Polarizable embedding, polarizable density embedding, QM/MM)
  Andrea Ligabue,              University of Modena,      Italy       (CTOCD, AOSOPPA)
  Nanna H. List,               Univ. of Southern Denmark, Denmark     (Polarizable embedding)
  Ola B. Lutnaes,              University of Oslo,        Norway      (DFT Hessian)
  Juan I. Melo,                University of Buenos Aires,Argentina   (LRESC, Relativistic Effects on NMR Shieldings)
  Kurt V. Mikkelsen,           University of Copenhagen,  Denmark     (MC-SCRF, QM/MM, and MP3)
  Rolf H. Myhre,               NTNU,                      Norway      (Subsystems and CC3)
  Christian Neiss,             Univ. Erlangen-Nuernberg,  Germany     (CCSD(R12))
  Christian B. Nielsen,        University of Copenhagen,  Denmark     (QM/MM)
  Patrick Norman,              KTH Stockholm,             Sweden      (Cubic response and complex frequency response in RESPONS)
  Jeppe Olsen,                 Aarhus University,         Denmark     (SIRIUS CI/density modules)
  Jogvan Magnus H. Olsen,      Aarhus University,         Denmark     (Polarizable embedding and polarizable density embedding)
  Anders Osted,                Copenhagen University,     Denmark     (QM/MM)
  Martin J. Packer,            University of Sheffield,   UK          (SOPPA)
  Filip Pawlowski,             Kazimierz Wielki UniversityPoland      (CC3)
  Morten N. Pedersen,          Univ. of Southern Denmark, Denmark     (Polarizable embedding)
  Thomas B. Pedersen,          University of Oslo,        Norway      (Cholesky decomposition)
  Patricio F. Provasi,         University of Northeastern,Argentina   (Analysis of coupling constants in localized orbitals)
  Peter Reinholdt,             Univ. of Southern Denmark, Denmark     (Polarizable embedding and polarizable density embedding)
  Zilvinas Rinkevicius,        KTH Stockholm,             Sweden      (open-shell DFT, ESR)
  Elias Rudberg,               KTH Stockholm,             Sweden      (DFT grid and basis info)
  Torgeir A. Ruden,            University of Oslo,        Norway      (Numerical derivatives in ABACUS)
  Kenneth Ruud,                UiT The Arctic U. of NorwayNorway      (DALTON; ABACUS magnetic properties and much more)
  Pawel Salek,                 KTH Stockholm,             Sweden      (DALTON; DFT code)
  Claire C. M. Samson,         University of Karlsruhe    Germany     (Boys localization, r12 integrals in ERI)
  Alfredo Sanchez de Meras,    University of Valencia,    Spain       (CC module, Cholesky decomposition)
  Trond Saue,                  Paul Sabatier University,  France      (direct Fock matrix construction)
  Stephan P. A. Sauer,         University of Copenhagen,  Denmark     (SOPPA(CCSD), SOPPA prop., AOSOPPA, vibrational g-factors)
  Bernd Schimmelpfennig,       Forschungszentrum KarlsruheGermany     (AMFI module)
  Anna K. Schnack-Petersen,    University of Copenhagen,  Denmark     (RPA(D) and HRPA(D) properties in AOSOPPA)
  Kristian Sneskov,            Aarhus University,         Denmark     (Polarizable embedding, QM/MM)
  Arnfinn H. Steindal,         UiT The Arctic U. of NorwayNorway      (parallel QM/MM, polarizable embedding)
  Casper Steinmann,            Aalborg University,        Denmark     (QFIT, polarizable embedding)
  K. O. Sylvester-Hvid,        University of Copenhagen,  Denmark     (MC-SCRF)
  Peter R. Taylor,             VLSCI/Univ. of Melbourne,  Australia   (Symmetry handling ABACUS, integral transformation)
  Andrew M. Teale,             University of Nottingham,  England     (DFT-AC, DFT-D)
  David P. Tew,                University of Bristol,     England     (CCSD(R12))
  Julien Toulouse,             Sorbonne Univ.,            France      (MC-srDFT)
  Olav Vahtras,                KTH Stockholm,             Sweden      (Triplet response, spin-orbit, ESR, TDDFT, open-shell DFT)
  Lucas Visscher,              Vrije Universiteit AmsterdaNetherlands (Frozen density embedding)
  David J. Wilson,             La Trobe University,       Australia   (DFT Hessian and DFT magnetizabilities)
  Luna Zamok,                  University of Copenhagen,  Denmark     (Block Lanczos RPA solver in SOPPA module)
  Hans Agren,                  KTH Stockholm,             Sweden      (SIRIUS module, RESPONS, MC-SCRF solvation)
 --------------------------------------------------------------------------------

     Date and time (Linux)  : Tue Feb 25 14:52:45 2025
     Host name              : s44n06.grendel.cscaa.dk                 

 * Work memory size             :  1310720000 =  9.766 gigabytes.

 * Directories for basis set searches:
   1) /home/jmikk/projects/article4/dissociation/ch3cl2-
   2) /home/jmikk/programs/dalton-oslo/build64/basis


Compilation information
-----------------------

 Who compiled             | jmikk
 Host                     | grendel
 System                   | Linux-4.18.0-513.18.1.el8_9.x86_64
 CMake generator          | Unix Makefiles
 Processor                | x86_64
 64-bit integers          | ON
 MPI                      | OFF
 Fortran compiler         | /comm/swstack/core/gcc/11.2.0/bin/gfortran
 Fortran compiler version | GNU Fortran (GCC) 11.2.0
 C compiler               | /comm/swstack/core/gcc/11.2.0/bin/gcc
 C compiler version       | gcc (GCC) 11.2.0
 C++ compiler             | /comm/swstack/core/gcc/11.2.0/bin/g++
 C++ compiler version     | g++ (GCC) 11.2.0
 Static linking           | OFF
 Last Git revision        | 082d2ff11a6851740f25fd48efdf99ad0c6d6e99
 Git branch               | crk-oslo
 Configuration time       | 2025-02-25 14:12:57.038229

 * Sequential calculation.


   Content of the .dal input file
 ----------------------------------

**DALTON INPUT
.RUN RESPONSE
**WAVE FUNCTIONS
.HF
.MP2
.MCSCF
*CONFIGURATION INPUT
.INACTIVE
 17
.CAS SPACE
 9
.ELECTRONS
 9
**RESPONSE
*LINEAR
.ATMMOM
 1
**END OF DALTON INPUT


   Content of the .mol file
 ----------------------------

BASIS
pcseg-1
Chloroform (CH3Cl2-)
Property calculated with xxx/pcseg-1. Geo opt with wB97x/aug-pcseg-1 and IRC
Atomtypes=3 Charge=-1 NoSymmetry Angstrom
Charge=6.0 Atoms=1
C   0.204594    0.000279   -0.000098
Charge=17.0 Atoms=2
Cl1  2.301244    0.002179   -0.000467
Cl2 -2.372596   -0.002286    0.000508
Charge=1.0 Atoms=3
H1   0.016511    1.064007   -0.070748
H2   0.017894   -0.470594    0.956605
H3   0.017666   -0.592998   -0.886130


       *******************************************************************
       *********** Output from DALTON general input processing ***********
       *******************************************************************

 --------------------------------------------------------------------------------
   Overall default print level:    0
   Print level for DALTON.STAT:    1

    HERMIT 1- and 2-electron integral sections will be executed
    "Old" integral transformation used (limited to max 255 basis functions)
    Wave function sections will be executed (SIRIUS module)
    Dynamic molecular response properties section will be executed (RESPONSE module)
 --------------------------------------------------------------------------------


   ****************************************************************************
   *************** Output of molecule and basis set information ***************
   ****************************************************************************


    The two title cards from your ".mol" input:
    --------------------------------------------------------------------------------
 1: Chloroform (CH3Cl2-)
 2: Property calculated with xxx/pcseg-1. Geo opt with wB97x/aug-pcseg-1 and IRC
    --------------------------------------------------------------------------------

  Coordinates are entered in Angstrom and converted to atomic units.
          - Conversion factor : 1 bohr = 0.52917721 A

  Atomic type no.    1
  --------------------
  Nuclear charge:   6.00000
  Number of symmetry independent centers:    1
  Number of basis sets to read;    2
  Basis set file used for this atomic type with Z =   6 :
     "/home/jmikk/programs/dalton-oslo/build64/basis/pcseg-1"

  Info about the basis set file: your basis has no documentation.
  Basis set: pcseg-1                                                                         

  Atomic type no.    2
  --------------------
  Nuclear charge:  17.00000
  Number of symmetry independent centers:    2
  Number of basis sets to read;    2
  Basis set file used for this atomic type with Z =  17 :
     "/home/jmikk/programs/dalton-oslo/build64/basis/pcseg-1"

  Info about the basis set file: your basis has no documentation.
  Basis set: pcseg-1                                                                         

  Atomic type no.    3
  --------------------
  Nuclear charge:   1.00000
  Number of symmetry independent centers:    3
  Number of basis sets to read;    2
  Basis set file used for this atomic type with Z =   1 :
     "/home/jmikk/programs/dalton-oslo/build64/basis/pcseg-1"

  Info about the basis set file: your basis has no documentation.
  Basis set: pcseg-1                                                                         


                         SYMGRP: Point group information
                         -------------------------------

@    Point group: C1 


                                 Isotopic Masses
                                 ---------------

                           C          12.000000
                           Cl1        34.968853
                           Cl2        34.968853
                           H1          1.007825
                           H2          1.007825
                           H3          1.007825

                       Total mass:    84.961181 amu
                       Natural abundance:  56.754 %

 Center-of-mass coordinates (a.u.):    0.000278    0.000001   -0.000000
 Center-of-mass coordinates (Angs):    0.000147    0.000000   -0.000000


  Atoms and basis sets
  --------------------

  Number of atom types :    3
  Total number of atoms:    6

  Basis set used is "pcseg-1" from the basis set library.

  label    atoms   charge   prim   cont     basis
  ----------------------------------------------------------------------
  C           1    6.0000    25    14      [8s4p1d|3s2p1d]                                    
  Cl          2   17.0000    44    18      [12s9p1d|4s3p1d]                                   
  H3          3    1.0000     7     5      [4s1p|2s1p]                                        
  ----------------------------------------------------------------------
  total:      6   43.0000   134    65
  ----------------------------------------------------------------------
  Spherical harmonic basis used.

  Threshold for neglecting AO integrals:  1.00D-12


  Cartesian Coordinates (a.u.)
  ----------------------------

  Total number of coordinates:   18
  C       :     1  x   0.3866266268    2  y   0.0005272336    3  z  -0.0001851932
  Cl1     :     4  x   4.3487209068    5  y   0.0041177132    6  z  -0.0008825021
  Cl2     :     7  x  -4.4835566453    8  y  -0.0043199139    9  z   0.0009599809
  H1      :    10  x   0.0312012680   11  y   2.0106818251   12  z  -0.1336943439
  H2      :    13  x   0.0338147593   14  y  -0.8892937761   15  z   1.8077214598
  H3      :    16  x   0.0333839017   17  y  -1.1206038127   18  z  -1.6745430111


   Interatomic separations (in Angstrom):
   --------------------------------------

            C           Cl1         Cl2         H1          H2          H3    
            ------      ------      ------      ------      ------      ------
 C     :    0.000000
 Cl1   :    2.096651    0.000000
 Cl2   :    2.577191    4.673842    0.000000
 H1    :    1.082536    2.520401    2.617230    0.000000
 H2    :    1.082524    2.520553    2.616845    1.846742    0.000000
 H3    :    1.082577    2.520588    2.616949    1.846758    1.846796    0.000000


  Max    interatomic separation is    4.6738 Angstrom (    8.8323 Bohr)
  between atoms    3 and    2, "Cl2   " and "Cl1   ".

  Min HX interatomic separation is    1.0825 Angstrom (    2.0457 Bohr)

  Min YX interatomic separation is    2.0967 Angstrom (    3.9621 Bohr)


  Bond distances (Angstrom):
  --------------------------

                  atom 1     atom 2       distance
                  ------     ------       --------
  bond distance:  Cl1        C            2.096651
  bond distance:  H1         C            1.082536
  bond distance:  H2         C            1.082524
  bond distance:  H3         C            1.082577


  Bond angles (degrees):
  ----------------------

                  atom 1     atom 2     atom 3         angle
                  ------     ------     ------         -----
  bond angle:     Cl1        C          H1            99.953
  bond angle:     Cl1        C          H2            99.963
  bond angle:     Cl1        C          H3            99.964
  bond angle:     H1         C          H2           117.073
  bond angle:     H1         C          H3           117.071
  bond angle:     H2         C          H3           117.075




 Principal moments of inertia (u*A**2) and principal axes
 --------------------------------------------------------

   IA       3.437230          1.000000    0.000957   -0.000209
   IB     384.254607          0.000005    0.208997    0.977916
   IC     384.254726         -0.000979    0.977916   -0.208997


 Rotational constants
 --------------------

               A                   B                   C

         147030.9086           1315.2191           1315.2187 MHz
            4.904423            0.043871            0.043871 cm-1


@  Nuclear repulsion energy :  110.087004849310 Hartree


                     .---------------------------------------.
                     | Starting in Integral Section (HERMIT) |
                     `---------------------------------------'



 ***************************************************************************************
 ****************** Output from **INTEGRALS input processing (HERMIT) ******************
 ***************************************************************************************


 - Using defaults, no **INTEGRALS input found

 Default print level:        1

 Calculation of one- and two-electron Hamiltonian integrals.

 Center of mass  (bohr):      0.000278224859      0.000000546716     -0.000000387310
 Operator center (bohr):      0.000000000000      0.000000000000      0.000000000000
 Gauge origin    (bohr):      0.000000000000      0.000000000000      0.000000000000
 Dipole origin   (bohr):      0.000000000000      0.000000000000      0.000000000000

Calculation of 2-electron integrals are postponed until they are needed.


     ************************************************************************
     ************************** Output from HERINT **************************
     ************************************************************************



                      Nuclear contribution to dipole moments
                      --------------------------------------

                 au               Debye          C m (/(10**-30)

      x      0.12595214         0.32013838         1.06786668
      y      0.00051023         0.00129687         0.00432588
      z     -0.00030992        -0.00078773        -0.00262757


  Total CPU  time used in HERMIT:   0.04 seconds
  Total wall time used in HERMIT:   0.04 seconds


                        .----------------------------------.
                        | End of Integral Section (HERMIT) |
                        `----------------------------------'



                   .--------------------------------------------.
                   | Starting in Wave Function Section (SIRIUS) |
                   `--------------------------------------------'


 *** Output from Huckel module :

     Using EWMO model:          T
     Using EHT  model:          F
     Number of Huckel orbitals each symmetry:   36

 EWMO - Energy Weighted Maximum Overlap - is a Huckel type method,
        which normally is better than Extended Huckel Theory.
 Reference: Linderberg and Ohrn, Propagators in Quantum Chemistry (Wiley, 1973)

 Huckel EWMO eigenvalues for symmetry :  1
         -104.883934    -104.883909     -11.348491     -10.608658     -10.607704
           -8.072389      -8.072230      -8.072213      -8.072213      -8.072203
           -8.072203      -1.452269      -1.125577      -0.995332      -0.718279
           -0.718267      -0.581272      -0.505206      -0.505205      -0.468977
           -0.468977      -0.450204      -0.262466      -0.134785      -0.114122
           -0.114113      -0.055547      -0.055547      -0.055533      -0.055533
           -0.055254      -0.055254      -0.054118      -0.054018      -0.054018
           -0.050738

 **********************************************************************
 *SIRIUS* a direct, restricted step, second order MCSCF program       *
 **********************************************************************

 
     Date and time (Linux)  : Tue Feb 25 14:52:45 2025
     Host name              : s44n06.grendel.cscaa.dk                 

 Title lines from ".mol" input file:
     Chloroform (CH3Cl2-)
     Property calculated with xxx/pcseg-1. Geo opt with wB97x/aug-pcseg-1 and IRC

 Print level on unit LUPRI =   2 is   0
 Print level on unit LUW4  =   2 is   5

@    MCSCF optimization.

@    MCSCF response calculation.
@              Type: complete active space calculation (CAS).

@    This is a combination run starting with
@              a restricted, closed shell Hartree-Fock calculation
@              an MP2 calculation


 Initial molecular orbitals are obtained according to
 ".MOSTART EWMO  " input option

     Wave function specification
     ============================
@    Wave function type        --- MC-SCF ---
@    Number of closed shell electrons          34
@    Number of electrons in active shells       9
@    Total charge of the molecule               0

@    Spin multiplicity and 2 M_S                2         1
@    Total number of symmetries                 1 (point group: C1 )
@    Reference state symmetry                   1 (irrep name : A  )

     Orbital specifications
     ======================
@    Abelian symmetry species          All |    1
@                                          |  A  
                                       --- |  ---
@    Inactive orbitals                  17 |   17
@    Active orbitals                     9 |    9
@    Secondary orbitals                 39 |   39
@    Total number of orbitals           65 |   65
@    Number of basis functions          65 |   65

      -- Initial occupation of symmetries is determined from total charge (only one symmetry!)
      -- Initial occupation of symmetries is :
@    Occupied SCF orbitals              22 |   22

     Optimization information
     ========================
@    Number of configurations              8820
@    Number of orbital rotations           1167
     ------------------------------------------
@    Total number of variables             9987

     Maximum number of macro iterations      25
     Maximum number of micro iterations     600
     Threshold for MCSCF gradient      1.00D-05
     Number of initial trial vectors          1
     Number of initial CI iterations         -1
     Number of simultaneous trial vectors     1

@    This calculation converges to the lowest state for the specified symmetry and spin species.

     Maximum number of NEO/NR iterations  24


 ***********************************************
 ***** DIIS acceleration of SCF iterations *****
 ***********************************************

 C1-DIIS algorithm; max error vectors =    8

 Iter      Total energy        Error norm    Delta(E)  DIIS dim.
 -----------------------------------------------------------------------------

Calculating AOSUPINT

---> (Re)generating AOTWOINT


     ************************************************************************
     ************************** Output from HERINT **************************
     ************************************************************************


 Threshold for neglecting two-electron integrals:  1.00D-12
 HERMIT - Number of two-electron integrals written:     1818837 ( 79.0% )
 HERMIT - Megabytes written:                             20.875

  Total CPU  time used in TWOINT:   0.47 seconds
  Total wall time used in TWOINT:   0.47 seconds
  Time used in TWOINT     is       0.47 seconds
  CPU  time used in MAKE_AOTWOINT is   0.47 seconds
  WALL time used in MAKE_AOTWOINT is   0.47 seconds
     (Precalculated AO two-electron integrals are transformed to P-supermatrix elements.
      Threshold for discarding integrals :  1.00D-12 )

@  1    -958.296707274        1.86491D+00   -9.58D+02    1
      Virial theorem: -V/T =      1.996982
@    MULPOP   C       0.46; Cl1    -0.44; Cl2    -0.88; H1     -0.05; H2     -0.05; H3     -0.05; 
   1  Level shift: doubly occupied orbital energies shifted by -2.00D-01
 -----------------------------------------------------------------------------
@  2    -958.547223565        6.47668D-01   -2.51D-01    2
      Virial theorem: -V/T =      1.999477
@    MULPOP   C      -0.33; Cl1    -0.32; Cl2    -0.79; H1      0.15; H2      0.15; H3      0.15; 
   2  Level shift: doubly occupied orbital energies shifted by -1.00D-01
 -----------------------------------------------------------------------------
@  3    -958.583651533        1.74448D-01   -3.64D-02    3
      Virial theorem: -V/T =      1.999141
@    MULPOP   C      -0.10; Cl1    -0.45; Cl2    -0.85; H1      0.14; H2      0.14; H3      0.14; 
   3  Level shift: doubly occupied orbital energies shifted by -5.00D-02
 -----------------------------------------------------------------------------
@  4    -958.589048247        6.10106D-02   -5.40D-03    4
      Virial theorem: -V/T =      1.999017
@    MULPOP   C      -0.10; Cl1    -0.50; Cl2    -0.88; H1      0.16; H2      0.16; H3      0.16; 
   4  Level shift: doubly occupied orbital energies shifted by -2.50D-02
 -----------------------------------------------------------------------------
@  5    -958.589829841        2.13343D-02   -7.82D-04    5
      Virial theorem: -V/T =      1.999086
@    MULPOP   C      -0.09; Cl1    -0.53; Cl2    -0.89; H1      0.17; H2      0.17; H3      0.17; 
   5  Level shift: doubly occupied orbital energies shifted by -1.25D-02
 -----------------------------------------------------------------------------
@  6    -958.589917826        4.37270D-03   -8.80D-05    6
      Virial theorem: -V/T =      1.999070
@    MULPOP   C      -0.09; Cl1    -0.54; Cl2    -0.89; H1      0.17; H2      0.17; H3      0.17; 
 -----------------------------------------------------------------------------
@  7    -958.589922166        9.21199D-04   -4.34D-06    7
      Virial theorem: -V/T =      1.999067
@    MULPOP   C      -0.09; Cl1    -0.54; Cl2    -0.89; H1      0.17; H2      0.18; H3      0.18; 
 -----------------------------------------------------------------------------
@  8    -958.589922290        2.38863D-04   -1.24D-07    8
      Virial theorem: -V/T =      1.999069
@    MULPOP   C      -0.09; Cl1    -0.54; Cl2    -0.89; H1      0.18; H2      0.18; H3      0.18; 
 -----------------------------------------------------------------------------
@  9    -958.589922301        6.15779D-05   -1.14D-08    8
      Virial theorem: -V/T =      1.999069
@    MULPOP   C      -0.09; Cl1    -0.54; Cl2    -0.89; H1      0.18; H2      0.18; H3      0.18; 
 -----------------------------------------------------------------------------
@ 10    -958.589922302        9.81656D-06   -9.67D-10    8
      Virial theorem: -V/T =      1.999069
@    MULPOP   C      -0.09; Cl1    -0.54; Cl2    -0.89; H1      0.18; H2      0.18; H3      0.18; 
 -----------------------------------------------------------------------------
@ 11    -958.589922302        1.96630D-06   -2.25D-11    8
      Virial theorem: -V/T =      1.999069
@    MULPOP   C      -0.09; Cl1    -0.54; Cl2    -0.89; H1      0.18; H2      0.18; H3      0.18; 
 -----------------------------------------------------------------------------
@ 12    -958.589922302        5.29875D-07    1.36D-12    8

@ *** DIIS converged in  12 iterations !
@     Converged SCF energy, gradient:   -958.589922302025    5.30D-07
    - total time used in SIRFCK :              0.00 seconds

 --- Writing SIRIFC interface file

--------------------------------------------------------------------------------


     .--------------------------------------------------.
     | HF-SCF KT IPs [a.u. & eV] from Koopmans' theorem |
     `--------------------------------------------------'


     HF-SCF KT symmetry 1 ( A  ) in point group C1  -- 22 principal poles with pole strength 1

   ============  ============  ============  ============  ============
     104.605768    104.511881     11.164191     10.346158     10.249414
    2846.467744   2843.912945    303.793090    281.533283    278.900738
   ============  ============  ============  ============  ============

   ============  ============  ============  ============  ============
       7.825472      7.823480      7.823480      7.728304      7.727753
     212.941933    212.887713    212.887713    210.297847    210.282849
   ============  ============  ============  ============  ============

   ============  ============  ============  ============  ============
       7.727753      0.907254      0.799906      0.751639      0.475049
     210.282848     24.687639     21.766559     20.453139     12.926739
   ============  ============  ============  ============  ============

   ============  ============  ============  ============  ============
       0.475033      0.327541      0.276076      0.276075      0.192575
      12.926298      8.912854      7.512420      7.512382      5.240240
   ============  ============  ============  ============  ============

   ============  ============
       0.192575      0.184912
       5.240231      5.031703
   ============  ============

@ Summary of HF-SCF KT ionization potentials [eV]:

@ Symmetry 1 (A  ) :  2846.468    2843.913     303.793     281.533     278.901
@                      212.942     212.888     212.888     210.298     210.283
@                      210.283      24.688      21.767      20.453      12.927
@                       12.926       8.913       7.512       7.512       5.240
@                        5.240       5.032

  === End of HF-SCF KT output ===
--------------------------------------------------------------------------------


 CPU and wall time for SCF :       0.716       0.720


 ----- Output from SIRIUS MP2 module -----

 Reference: H.J.Aa.Jensen, P.Jørgensen, H.Ågren, and J.Olsen,
            J. Chem. Phys. 88, 3834 (1988); 89, 5354 (1988)

 Checking that the closed shell orbitals are canonical Hartree-Fock orbitals

    Number of electrons  :   44
    Closed shell orbitals:   22

 Generating Fock matrix

 Hartree-Fock electronic energy:       -1068.676927151339
 Hartree-Fock total      energy:        -958.589922302029

 Hartree-Fock orbital energies, symmetry 1 ( A  ),   22 occupied SCF orbitals

      -104.60576800  -104.51188086   -11.16419097   -10.34615810   -10.24941385
        -7.82547230    -7.82347975    -7.82347975    -7.72830390    -7.72775275
        -7.72775272    -0.90725406    -0.79990636    -0.75163906    -0.47504893
        -0.47503272    -0.32754138    -0.27607638    -0.27607495    -0.19257528
        -0.19257495    -0.18491170     0.29158921     0.31436572     0.37049232
         0.37050331     0.67477494     0.69435392     0.69435921     0.72928044
         0.72929573     0.76365366     0.80406272     0.80406449     0.87308550
         0.91640499     1.00730815     1.00733721     1.04270466     1.05959250
         1.17008560     1.17008629     1.18124840     1.18686641     1.18688042
         1.26216796     1.26216927     1.27445202     1.27445682     1.47708097
         1.58990918     1.79672338     1.79673696     2.23682915     2.25238982
         2.25242626     2.40622157     2.73603639     2.73608090     2.78763131
         3.06395535     3.06399268     3.56370886     3.70646786     3.70651870

    E(LUMO) :     0.29158921   (in symmetry 1)
  - E(HOMO) :    -0.18491170   (in symmetry 1)
  --------------------------
    gap     :     0.47650091

 2-el. integral transformation level 5: Total CPU and WALL times (sec)       1.201       1.205

 MP2 move   0.316737 electrons to unoccupied HF orbitals


@   Hartree-Fock total energy   :          -958.5899223020
@   + MP2 contribution          :            -0.4302065052
@   = MP2 second order energy   :          -959.0201288072

 Natural orbital occupation numbers, symmetry 1 (irrep A  )
 Sum =    44.00000000; RHF =    44.00000000; Difference =     0.00000000

         1.99999987     1.99999986     1.99993502     1.99993466     1.99987635
         1.99987635     1.99987043     1.99987043     1.99986597     1.99985035
         1.99981157     1.98730845     1.98674374     1.97973053     1.97347132
         1.97347055     1.96881092     1.96881073     1.96635308     1.96635284
         1.96494097     1.95235850     0.03760652     0.01612902     0.01612825
         0.01388591     0.01370608     0.01370580     0.01258499     0.01252873
         0.01252841     0.01241762     0.01209937     0.01209907     0.01194957
         0.01194951     0.01169911     0.01169910     0.01161370     0.01161346
         0.01037007     0.00720504     0.00685024     0.00576031     0.00576027
         0.00360732     0.00319332     0.00319321     0.00215448     0.00123026
         0.00107144     0.00107140     0.00099254     0.00065166     0.00065163
         0.00062200     0.00042325     0.00042323     0.00040987     0.00030829
         0.00023347     0.00023346     0.00013709     0.00013709     0.00012235

 Time used for MP2 natural orbitals :       1.360 CPU seconds,       1.364 wall seconds.

 CPU and wall time for MP2 :       1.360       1.364


        SIRIUS MCSCF optimization (SIROPT)
 ================================================



 ----- Output from SIRIUS CI module (CICTL) -----




 2-el. integral transformation level 0: Total CPU and WALL times (sec)       0.180       0.181

 (CIST1) 8 lowest diagonal elements:

 Element no. Config.no.    Active energy      Total energy

         1 :         21    -14.1886862333   -958.3551421138
         2 :          6    -14.1881477444   -958.3546036248
         3 :         11    -14.1524937039   -958.3189495843
         4 :         16    -14.1524906642   -958.3189465446
         5 :          1    -14.1253298519   -958.2917857323
         6 :        631    -13.8580255677   -958.0244814481
         7 :        632    -13.8580255677   -958.0244814481
         8 :        951    -13.8531609554   -958.0196168359


 (CIST1) number of start vectors is increased from  1 to  4 because of (near) degeneracy

Lowest 4 elements are used as separate start CI vectors.


 Convergence threshold for CI optimization :     0.01000000


 The requested root number is now converged.


 *** CI converged in  4 iterations.



@ Final CI energies and residuals in symmetry 1 (irrep A  )
@    1     -958.420343114884417       5.37D-03

   --- OUTPUT FROM SIRCNO     Keyword = ONLYFD



 --- MACRO ITERATION  1 ---
 --------------------------

 2-el. integral transformation level 3: Total CPU and WALL times (sec)       0.778       0.780

 Total MCSCF energy       :          -958.420343114891011  (MACRO    1)

 - Nuclear repulsion      :           110.087004849310233
 - Inactive energy        :         -1054.253460729732524
 - Active energy          :           -14.253887234468728

 Norm of total gradient   :             0.636563542690
 -    of CI gradient      :             0.010745472372
 -    of orbital gradient :             0.636472842080


 *** Label "NATOCC  " not found on SIRIUS.RST in SIRPOP

 WARNING, occupation of active orbitals not available
          population analysis aborted.
          Use ".TRACI" option.


 (SIRNEO) iteration (  1,  5)
 Micro iteration termination criterion met, EVAL(ISTATE+1) = -8.57D-03

   --- OUTPUT FROM SIRCNO     Keyword = FD+NO 


 Occupations of CAS natural orbitals:

 Symmetry  1 ( irrep A   in C1  )

   1.000747025   1.992854487   1.994737176   1.994753136   1.947613057
   0.053775739   0.004019673   0.006829534   0.004670174


 --- MACRO ITERATION  2 ---
 --------------------------

 2-el. integral transformation level 3: Total CPU and WALL times (sec)       0.785       0.788

 Total MCSCF energy       :          -958.488062184958949  (MACRO    2)

 - Nuclear repulsion      :           110.087004849310233
 - Inactive energy        :         -1054.339547631022242
 - Active energy          :           -14.235519403246903

 Norm of total gradient   :             0.142835024303
 -    of CI gradient      :             0.094273968710
 -    of orbital gradient :             0.107304533881
      Virial theorem: -V/T =      1.998890
@    MULPOP   C      -0.22; Cl1    -0.32; Cl2     0.03; H1      0.17; H2      0.17; H3      0.17; 

 Residual norm when dim(red L) =  10
 NEO root     CSF        orbital          total
    1     0.01995566     0.00965212     0.02216736 converged

 (NEONEX) NEO vector is converged.

   --- OUTPUT FROM SIRCNO     Keyword = FD+NO 


 Occupations of CAS natural orbitals:

 Symmetry  1 ( irrep A   in C1  )

   1.000682147   1.988581494   1.987772715   1.994401403   1.941479206
   0.060276521   0.011050835   0.011014367   0.004741311


 --- MACRO ITERATION  3 ---
 --------------------------

 2-el. integral transformation level 3: Total CPU and WALL times (sec)       0.783       0.785

 Total MCSCF energy       :          -958.503936776566434  (MACRO    3)

 - Nuclear repulsion      :           110.087004849310233
 - Inactive energy        :         -1053.589135455144060
 - Active energy          :           -15.001806170732580

 Norm of total gradient   :             0.075866471581
 -    of CI gradient      :             0.067531999867
 -    of orbital gradient :             0.034570948846
      Virial theorem: -V/T =      1.998930
@    MULPOP   C      -0.27; Cl1    -0.26; Cl2     0.02; H1      0.17; H2      0.17; H3      0.17; 

 (SIRNEO) iteration (  3, 10)
 Micro iteration termination criterion met, EVAL(ISTATE+1) = -7.24D-04

   --- OUTPUT FROM SIRCNO     Keyword = FD+NO 


 Occupations of CAS natural orbitals:

 Symmetry  1 ( irrep A   in C1  )

   1.000237648   1.983044996   1.984253042   1.993252254   1.946459333
   0.054299517   0.015363686   0.016722502   0.006367023


 --- MACRO ITERATION  4 ---
 --------------------------

 2-el. integral transformation level 3: Total CPU and WALL times (sec)       0.785       0.787

 Total MCSCF energy       :          -958.515002079573378  (MACRO    4)

 - Nuclear repulsion      :           110.087004849310233
 - Inactive energy        :         -1052.842175825441700
 - Active energy          :           -15.759831103441899

 Norm of total gradient   :             0.056597424727
 -    of CI gradient      :             0.051545568401
 -    of orbital gradient :             0.023373550522
      Virial theorem: -V/T =      1.998955
@    MULPOP   C      -0.25; Cl1    -0.27; Cl2     0.03; H1      0.17; H2      0.16; H3      0.16; 

 (SIRNEO) iteration (  4,  5)
 Micro iteration termination criterion met, EVAL(ISTATE+1) = -1.82D-03

   --- OUTPUT FROM SIRCNO     Keyword = FD+NO 


 Occupations of CAS natural orbitals:

 Symmetry  1 ( irrep A   in C1  )

   1.000081269   1.982709104   1.986789319   1.988883473   1.947806159
   0.053068707   0.012978879   0.016788613   0.010894477


 --- MACRO ITERATION  5 ---
 --------------------------

 2-el. integral transformation level 3: Total CPU and WALL times (sec)       0.784       0.787

 Total MCSCF energy       :          -958.518727305172888  (MACRO    5)

 - Nuclear repulsion      :           110.087004849310233
 - Inactive energy        :         -1052.599741103229462
 - Active energy          :           -16.005991051253670

 Norm of total gradient   :             0.118035262064
 -    of CI gradient      :             0.100498643582
 -    of orbital gradient :             0.061905942596
      Virial theorem: -V/T =      1.998886
@    MULPOP   C      -0.24; Cl1    -0.28; Cl2     0.02; H1      0.16; H2      0.17; H3      0.17; 

 Residual norm when dim(red L) =   7
 NEO root     CSF        orbital          total
    1     0.02035385     0.00880105     0.02217516 converged

 (NEONEX) NEO vector is converged.

   --- OUTPUT FROM SIRCNO     Keyword = FD+NO 


 Occupations of CAS natural orbitals:

 Symmetry  1 ( irrep A   in C1  )

   1.000100450   1.978669576   1.986613801   1.992409597   1.947787538
   0.053169235   0.013230956   0.020634894   0.007383954


 --- MACRO ITERATION  6 ---
 --------------------------

 2-el. integral transformation level 3: Total CPU and WALL times (sec)       0.779       0.782

 Total MCSCF energy       :          -958.520937300706237  (MACRO    6)

 - Nuclear repulsion      :           110.087004849310233
 - Inactive energy        :         -1052.409587630456144
 - Active energy          :           -16.198354519560283

 Norm of total gradient   :             0.027884539050
 -    of CI gradient      :             0.026072841581
 -    of orbital gradient :             0.009887085007
      Virial theorem: -V/T =      1.998917
@    MULPOP   C      -0.23; Cl1    -0.27; Cl2     0.02; H1      0.15; H2      0.16; H3      0.17; 

 (SIRNEO) iteration (  6,  9)
 Micro iteration termination criterion met, EVAL(ISTATE+1) = -1.52D-03

   --- OUTPUT FROM SIRCNO     Keyword = FD+NO 


 Occupations of CAS natural orbitals:

 Symmetry  1 ( irrep A   in C1  )

   1.000139395   1.980121431   1.987274994   1.991069466   1.945358670
   0.055801356   0.012497511   0.019191600   0.008545578


 --- MACRO ITERATION  7 ---
 --------------------------

 2-el. integral transformation level 3: Total CPU and WALL times (sec)       0.779       0.782

 Total MCSCF energy       :          -958.521744035382198  (MACRO    7)

 - Nuclear repulsion      :           110.087004849310233
 - Inactive energy        :         -1051.855440301379076
 - Active energy          :           -16.753308583313377

 Norm of total gradient   :             0.058026344008
 -    of CI gradient      :             0.045537882644
 -    of orbital gradient :             0.035963284656
      Virial theorem: -V/T =      1.998951
@    MULPOP   C      -0.22; Cl1    -0.28; Cl2     0.02; H1      0.15; H2      0.16; H3      0.16; 

 Residual norm when dim(red L) =  11
 NEO root     CSF        orbital          total
    1     0.00717832     0.00153428     0.00734046 converged

 (NEONEX) NEO vector is converged.

   --- OUTPUT FROM SIRCNO     Keyword = FD+NO 


 Occupations of CAS natural orbitals:

 Symmetry  1 ( irrep A   in C1  )

   1.000079155   1.980066570   1.977819546   1.992239218   1.946686726
   0.054512675   0.022179741   0.018841527   0.007574841


 --- MACRO ITERATION  8 ---
 --------------------------

 2-el. integral transformation level 3: Total CPU and WALL times (sec)       0.779       0.782

 Total MCSCF energy       :          -958.526415423793196  (MACRO    8)

 - Nuclear repulsion      :           110.087004849310233
 - Inactive energy        :         -1051.654537446504037
 - Active energy          :           -16.958882826599400

 Norm of total gradient   :             0.048971115342
 -    of CI gradient      :             0.045707978423
 -    of orbital gradient :             0.017576997647
      Virial theorem: -V/T =      1.998921
@    MULPOP   C      -0.21; Cl1    -0.27; Cl2     0.02; H1      0.15; H2      0.17; H3      0.15; 

 Residual norm when dim(red L) =   7
 NEO root     CSF        orbital          total
    1     0.00744406     0.00205766     0.00772321 converged

 (NEONEX) NEO vector is converged.

   --- OUTPUT FROM SIRCNO     Keyword = FD+NO 


 Occupations of CAS natural orbitals:

 Symmetry  1 ( irrep A   in C1  )

   1.000049429   1.981124289   1.978599360   1.992151285   1.946398495
   0.054579591   0.020256713   0.019176264   0.007664574


 --- MACRO ITERATION  9 ---
 --------------------------

 2-el. integral transformation level 3: Total CPU and WALL times (sec)       0.787       0.790

 Total MCSCF energy       :          -958.527165410570547  (MACRO    9)

 - Nuclear repulsion      :           110.087004849310233
 - Inactive energy        :         -1051.694851098915024
 - Active energy          :           -16.919319160965756

 Norm of total gradient   :             0.009429833400
 -    of CI gradient      :             0.009084025065
 -    of orbital gradient :             0.002530266108
      Virial theorem: -V/T =      1.998925
@    MULPOP   C      -0.21; Cl1    -0.27; Cl2     0.02; H1      0.15; H2      0.16; H3      0.15; 

 (SIRNEO) iteration (  9, 24)
 Micro iteration termination criterion met, EVAL(ISTATE+1) = -1.21D-04

   --- OUTPUT FROM SIRCNO     Keyword = FD+NO 


 Occupations of CAS natural orbitals:

 Symmetry  1 ( irrep A   in C1  )

   1.001720950   1.981461688   1.979348110   1.991694832   1.944108289
   0.056226689   0.019761595   0.018516770   0.007161077


 --- MACRO ITERATION 10 ---
 --------------------------

 2-el. integral transformation level 3: Total CPU and WALL times (sec)       0.787       0.789

 Total MCSCF energy       :          -958.525140236773950  (MACRO   10)

 - Nuclear repulsion      :           110.087004849310233
 - Inactive energy        :         -1051.768791639761730
 - Active energy          :           -16.843353446322478

 Norm of total gradient   :             0.148550476154
 -    of CI gradient      :             0.076026082197
 -    of orbital gradient :             0.127621623526
      Virial theorem: -V/T =      1.999031
@    MULPOP   C      -0.21; Cl1    -0.28; Cl2     0.01; H1      0.16; H2      0.16; H3      0.16; 

 (SIRSTP) Energy difference;
 actual, predicted and ratio:   0.002025173796596  -0.000702348760439   -2.883430

 (SIRSTP) step is too large -- backstep

   --- OUTPUT FROM SIRCNO     Keyword = FD+NO 


 Occupations of CAS natural orbitals:

 Symmetry  1 ( irrep A   in C1  )

   1.001029573   1.981496483   1.979278819   1.991732714   1.945115617
   0.055439284   0.019793988   0.018593036   0.007520486


 Optimization control: Step was too large, we backstep


 --- MACRO ITERATION 10 BACKSTEP NO.  1 ---

 2-el. integral transformation level 3: Total CPU and WALL times (sec)       0.781       0.784

 Total MCSCF energy       :          -958.526784256536985  (MACRO   10)

 - Nuclear repulsion      :           110.087004849310233
 - Inactive energy        :         -1051.765220908609990
 - Active energy          :           -16.848568197237196

 Norm of total gradient   :             0.081982547984
 -    of CI gradient      :             0.052040261932
 -    of orbital gradient :             0.063347843783
      Virial theorem: -V/T =      1.998979
@    MULPOP   C      -0.21; Cl1    -0.28; Cl2     0.02; H1      0.16; H2      0.16; H3      0.16; 

 (SIRSTP) Energy difference;
 actual, predicted and ratio:   0.000381154033562  -0.000355648999416   -1.071714

 (SIRSTP) step is too large -- backstep

   --- OUTPUT FROM SIRCNO     Keyword = FD+NO 


 Occupations of CAS natural orbitals:

 Symmetry  1 ( irrep A   in C1  )

   1.000563941   1.981483858   1.979187596   1.991885967   1.945611127
   0.055107136   0.019837917   0.018681473   0.007640984


 Optimization control: Step was too large, we backstep


 --- MACRO ITERATION 10 BACKSTEP NO.  2 ---

 2-el. integral transformation level 3: Total CPU and WALL times (sec)       0.787       0.790

 Total MCSCF energy       :          -958.527171420790182  (MACRO   10)

 - Nuclear repulsion      :           110.087004849310233
 - Inactive energy        :         -1051.752531628521410
 - Active energy          :           -16.861644641578955

 Norm of total gradient   :             0.046276663800
 -    of CI gradient      :             0.035009167648
 -    of orbital gradient :             0.030263638133
      Virial theorem: -V/T =      1.998950
@    MULPOP   C      -0.21; Cl1    -0.28; Cl2     0.02; H1      0.16; H2      0.16; H3      0.15; 

 (SIRSTP) Energy difference;
 actual, predicted and ratio:  -0.000006010219636  -0.000189652180800    0.031691

 (SIRSTP) step is too large -- backstep

   --- OUTPUT FROM SIRCNO     Keyword = FD+NO 


 Occupations of CAS natural orbitals:

 Symmetry  1 ( irrep A   in C1  )

   1.000301100   1.981456908   1.979104964   1.992022040   1.945808820
   0.055011373   0.019880170   0.018753622   0.007661004


 Optimization control: Step was too large, we backstep


 --- MACRO ITERATION 10 BACKSTEP NO.  3 ---

 2-el. integral transformation level 3: Total CPU and WALL times (sec)       0.784       0.786

 Total MCSCF energy       :          -958.527229129076545  (MACRO   10)

 - Nuclear repulsion      :           110.087004849310233
 - Inactive energy        :         -1051.739100050490606
 - Active energy          :           -16.875133927896222

 Norm of total gradient   :             0.027414965606
 -    of CI gradient      :             0.023328960359
 -    of orbital gradient :             0.014399303724
      Virial theorem: -V/T =      1.998936
@    MULPOP   C      -0.21; Cl1    -0.28; Cl2     0.02; H1      0.16; H2      0.16; H3      0.15; 

 Residual norm when dim(red L) =  24
 NEO root     CSF        orbital          total
    1     0.00415986     0.00128410     0.00435354 converged

 (NEONEX) NEO vector is converged.

   --- OUTPUT FROM SIRCNO     Keyword = FD+NO 


 Occupations of CAS natural orbitals:

 Symmetry  1 ( irrep A   in C1  )

   1.000714695   1.981342440   1.978901645   1.992260269   1.944894869
   0.055822544   0.019993292   0.018921231   0.007149014


 --- MACRO ITERATION 11 ---
 --------------------------

 2-el. integral transformation level 3: Total CPU and WALL times (sec)       0.785       0.787

 Total MCSCF energy       :          -958.527682313730793  (MACRO   11)

 - Nuclear repulsion      :           110.087004849310233
 - Inactive energy        :         -1051.630475560642481
 - Active energy          :           -16.984211602398585

 Norm of total gradient   :             0.031139933338
 -    of CI gradient      :             0.006837795781
 -    of orbital gradient :             0.030379927537
      Virial theorem: -V/T =      1.998922
@    MULPOP   C      -0.22; Cl1    -0.27; Cl2     0.01; H1      0.16; H2      0.16; H3      0.15; 

 Residual norm when dim(red L) =  21
 NEO root     CSF        orbital          total
    1     0.00456822     0.00098495     0.00467320 converged

 (NEONEX) NEO vector is converged.

   --- OUTPUT FROM SIRCNO     Keyword = FD+NO 


 Occupations of CAS natural orbitals:

 Symmetry  1 ( irrep A   in C1  )

   1.001436227   1.981341129   1.978933866   1.992023519   1.943240067
   0.057240295   0.019954151   0.018878439   0.006952308


 --- MACRO ITERATION 12 ---
 --------------------------

 2-el. integral transformation level 3: Total CPU and WALL times (sec)       0.782       0.785

 Total MCSCF energy       :          -958.528091881231717  (MACRO   12)

 - Nuclear repulsion      :           110.087004849310233
 - Inactive energy        :         -1051.685013093464477
 - Active energy          :           -16.930083637077523

 Norm of total gradient   :             0.094824968854
 -    of CI gradient      :             0.006431659563
 -    of orbital gradient :             0.094606598467
      Virial theorem: -V/T =      1.998995
@    MULPOP   C      -0.23; Cl1    -0.25; Cl2     0.01; H1      0.16; H2      0.16; H3      0.16; 

 Residual norm when dim(red L) =  15
 NEO root     CSF        orbital          total
    1     0.01656696     0.00287673     0.01681487 converged

 (NEONEX) NEO vector is converged.

   --- OUTPUT FROM SIRCNO     Keyword = FD+NO 


 Occupations of CAS natural orbitals:

 Symmetry  1 ( irrep A   in C1  )

   1.001907304   1.981380854   1.978946913   1.991893631   1.942097501
   0.058287337   0.019928872   0.018862555   0.006695033


 --- MACRO ITERATION 13 ---
 --------------------------

 2-el. integral transformation level 3: Total CPU and WALL times (sec)       0.782       0.785

 Total MCSCF energy       :          -958.526701882526936  (MACRO   13)

 - Nuclear repulsion      :           110.087004849310233
 - Inactive energy        :         -1051.559863665497232
 - Active energy          :           -17.053843066339923

 Norm of total gradient   :             0.258089779105
 -    of CI gradient      :             0.029941136244
 -    of orbital gradient :             0.256347152196
      Virial theorem: -V/T =      1.998862
@    MULPOP   C      -0.25; Cl1    -0.25; Cl2     0.01; H1      0.16; H2      0.16; H3      0.16; 

 (SIRSTP) Energy difference;
 actual, predicted and ratio:   0.001389998704781  -0.002265339334808   -0.613594

 (SIRSTP) step is too large -- backstep

   --- OUTPUT FROM SIRCNO     Keyword = FD+NO 


 Occupations of CAS natural orbitals:

 Symmetry  1 ( irrep A   in C1  )

   1.001777539   1.981361527   1.978940603   1.991884435   1.942518748
   0.057902696   0.019939064   0.018870503   0.006804885


 Optimization control: Step was too large, we backstep


 --- MACRO ITERATION 13 BACKSTEP NO.  1 ---

 2-el. integral transformation level 3: Total CPU and WALL times (sec)       0.785       0.787

 Total MCSCF energy       :          -958.528456410693138  (MACRO   13)

 - Nuclear repulsion      :           110.087004849310233
 - Inactive energy        :         -1051.622826609899676
 - Active energy          :           -16.992634650103696

 Norm of total gradient   :             0.102289287998
 -    of CI gradient      :             0.013274442236
 -    of orbital gradient :             0.101424295030
      Virial theorem: -V/T =      1.998921
@    MULPOP   C      -0.24; Cl1    -0.25; Cl2     0.01; H1      0.16; H2      0.16; H3      0.16; 

 Residual norm when dim(red L) =   4
 NEO root     CSF        orbital          total
    1     0.01613037     0.00902775     0.01848484 converged

 (NEONEX) NEO vector is converged.

   --- OUTPUT FROM SIRCNO     Keyword = FD+NO 


 Occupations of CAS natural orbitals:

 Symmetry  1 ( irrep A   in C1  )

   1.001844390   1.981360729   1.978940518   1.991957188   1.942458095
   0.057945826   0.019940767   0.018871845   0.006680640


 --- MACRO ITERATION 14 ---
 --------------------------

 2-el. integral transformation level 3: Total CPU and WALL times (sec)       0.781       0.784

 Total MCSCF energy       :          -958.529042032275356  (MACRO   14)

 - Nuclear repulsion      :           110.087004849310233
 - Inactive energy        :         -1051.562863833666370
 - Active energy          :           -17.053183047919273

 Norm of total gradient   :             0.017909916348
 -    of CI gradient      :             0.015050655171
 -    of orbital gradient :             0.009707877344
      Virial theorem: -V/T =      1.998953
@    MULPOP   C      -0.24; Cl1    -0.25; Cl2     0.01; H1      0.16; H2      0.16; H3      0.16; 

 Residual norm when dim(red L) =  21
 NEO root     CSF        orbital          total
    1     0.00292113     0.00068045     0.00299934 converged

 (NEONEX) NEO vector is converged.

   --- OUTPUT FROM SIRCNO     Keyword = FD+NO 


 Occupations of CAS natural orbitals:

 Symmetry  1 ( irrep A   in C1  )

   1.002386321   1.981368846   1.978952392   1.992039110   1.940947476
   0.059286102   0.019906332   0.018849130   0.006264290


 --- MACRO ITERATION 15 ---
 --------------------------

 2-el. integral transformation level 3: Total CPU and WALL times (sec)       0.789       0.792

 Total MCSCF energy       :          -958.529693280516653  (MACRO   15)

 - Nuclear repulsion      :           110.087004849310233
 - Inactive energy        :         -1051.548203077242988
 - Active energy          :           -17.068495052583895

 Norm of total gradient   :             0.017010600359
 -    of CI gradient      :             0.003861059664
 -    of orbital gradient :             0.016566615310
      Virial theorem: -V/T =      1.998964
@    MULPOP   C      -0.25; Cl1    -0.24; Cl2     0.00; H1      0.16; H2      0.17; H3      0.16; 

 Residual norm when dim(red L) =  19
 NEO root     CSF        orbital          total
    1     0.00280462     0.00149376     0.00317761 converged

 (NEONEX) NEO vector is converged.

   --- OUTPUT FROM SIRCNO     Keyword = FD+NO 


 Occupations of CAS natural orbitals:

 Symmetry  1 ( irrep A   in C1  )

   1.002598654   1.981425725   1.978971650   1.992375294   1.939795869
   0.060284253   0.019861293   0.018818598   0.005868663


 --- MACRO ITERATION 16 ---
 --------------------------

 2-el. integral transformation level 3: Total CPU and WALL times (sec)       0.780       0.782

 Total MCSCF energy       :          -958.530410669589742  (MACRO   16)

 - Nuclear repulsion      :           110.087004849310233
 - Inactive energy        :         -1051.512418899523254
 - Active energy          :           -17.104996619376770

 Norm of total gradient   :             0.040367067640
 -    of CI gradient      :             0.004690084789
 -    of orbital gradient :             0.040093680980
      Virial theorem: -V/T =      1.998969
@    MULPOP   C      -0.26; Cl1    -0.23; Cl2    -0.00; H1      0.16; H2      0.17; H3      0.16; 

 Residual norm when dim(red L) =  18
 NEO root     CSF        orbital          total
    1     0.00606441     0.00445981     0.00752775 converged

 (NEONEX) NEO vector is converged.

   --- OUTPUT FROM SIRCNO     Keyword = FD+NO 


 Occupations of CAS natural orbitals:

 Symmetry  1 ( irrep A   in C1  )

   1.002461277   1.981477840   1.978985240   1.992964202   1.937487438
   0.062459902   0.019811571   0.018788679   0.005563852


 --- MACRO ITERATION 17 ---
 --------------------------

 2-el. integral transformation level 3: Total CPU and WALL times (sec)       0.785       0.788

 Total MCSCF energy       :          -958.530918563277737  (MACRO   17)

 - Nuclear repulsion      :           110.087004849310233
 - Inactive energy        :         -1051.459355309808416
 - Active energy          :           -17.158568102779533

 Norm of total gradient   :             0.128402878899
 -    of CI gradient      :             0.009931609034
 -    of orbital gradient :             0.128018211405
      Virial theorem: -V/T =      1.998999
@    MULPOP   C      -0.27; Cl1    -0.22; Cl2    -0.01; H1      0.16; H2      0.17; H3      0.17; 

 Residual norm when dim(red L) =   6
 NEO root     CSF        orbital          total
    1     0.01955312     0.01412733     0.02412273 converged

 (NEONEX) NEO vector is converged.

   --- OUTPUT FROM SIRCNO     Keyword = FD+NO 


 Occupations of CAS natural orbitals:

 Symmetry  1 ( irrep A   in C1  )

   1.002370965   1.981491461   1.978972607   1.993106697   1.937511496
   0.062445395   0.019826741   0.018777743   0.005496895


 --- MACRO ITERATION 18 ---
 --------------------------

 2-el. integral transformation level 3: Total CPU and WALL times (sec)       0.778       0.781

 Total MCSCF energy       :          -958.531674068587790  (MACRO   18)

 - Nuclear repulsion      :           110.087004849310233
 - Inactive energy        :         -1051.254875900892785
 - Active energy          :           -17.363803017005214

 Norm of total gradient   :             0.023271177302
 -    of CI gradient      :             0.019844988863
 -    of orbital gradient :             0.012154180764
      Virial theorem: -V/T =      1.998983
@    MULPOP   C      -0.27; Cl1    -0.22; Cl2    -0.01; H1      0.16; H2      0.17; H3      0.16; 

 Residual norm when dim(red L) =  21
 NEO root     CSF        orbital          total
    1     0.00345952     0.00151790     0.00377787 converged

 (NEONEX) NEO vector is converged.

   --- OUTPUT FROM SIRCNO     Keyword = FD+NO 


 Occupations of CAS natural orbitals:

 Symmetry  1 ( irrep A   in C1  )

   1.001407024   1.981566722   1.978994809   1.993629072   1.936553722
   0.063243518   0.019767241   0.018748916   0.006088977


 --- MACRO ITERATION 19 ---
 --------------------------

 2-el. integral transformation level 3: Total CPU and WALL times (sec)       0.784       0.786

 Total MCSCF energy       :          -958.533295325484232  (MACRO   19)

 - Nuclear repulsion      :           110.087004849310233
 - Inactive energy        :         -1051.149678441880951
 - Active energy          :           -17.470621732913557

 Norm of total gradient   :             0.041951247415
 -    of CI gradient      :             0.019920891058
 -    of orbital gradient :             0.036919713692
      Virial theorem: -V/T =      1.998992
@    MULPOP   C      -0.28; Cl1    -0.21; Cl2    -0.01; H1      0.16; H2      0.18; H3      0.16; 

 Residual norm when dim(red L) =  13
 NEO root     CSF        orbital          total
    1     0.00589607     0.00092173     0.00596768 converged

 (NEONEX) NEO vector is converged.

   --- OUTPUT FROM SIRCNO     Keyword = FD+NO 


 Occupations of CAS natural orbitals:

 Symmetry  1 ( irrep A   in C1  )

   1.001190571   1.981564325   1.979000913   1.992874916   1.936410266
   0.063400628   0.019767885   0.018731709   0.007058786


 --- MACRO ITERATION 20 ---
 --------------------------

 2-el. integral transformation level 3: Total CPU and WALL times (sec)       0.786       0.788

 Total MCSCF energy       :          -958.535390470021071  (MACRO   20)

 - Nuclear repulsion      :           110.087004849310233
 - Inactive energy        :         -1051.014260955826330
 - Active energy          :           -17.608134363504973

 Norm of total gradient   :             0.017329603403
 -    of CI gradient      :             0.011721334436
 -    of orbital gradient :             0.012764226305
      Virial theorem: -V/T =      1.998978
@    MULPOP   C      -0.28; Cl1    -0.21; Cl2    -0.01; H1      0.16; H2      0.18; H3      0.16; 

 Residual norm when dim(red L) =  18
 NEO root     CSF        orbital          total
    1     0.00216625     0.00107264     0.00241727 converged

 (NEONEX) NEO vector is converged.

   --- OUTPUT FROM SIRCNO     Keyword = FD+NO 


 Occupations of CAS natural orbitals:

 Symmetry  1 ( irrep A   in C1  )

   1.001179410   1.981527195   1.978974929   1.992133813   1.936280779
   0.063517335   0.019779423   0.018734085   0.007873030


 --- MACRO ITERATION 21 ---
 --------------------------

 2-el. integral transformation level 3: Total CPU and WALL times (sec)       0.779       0.782

 Total MCSCF energy       :          -958.537007301193626  (MACRO   21)

 - Nuclear repulsion      :           110.087004849310233
 - Inactive energy        :         -1050.897040592998565
 - Active energy          :           -17.726971557505319

 Norm of total gradient   :             0.019853424480
 -    of CI gradient      :             0.018044218486
 -    of orbital gradient :             0.008280376975
      Virial theorem: -V/T =      1.998978
@    MULPOP   C      -0.28; Cl1    -0.22; Cl2    -0.01; H1      0.16; H2      0.18; H3      0.16; 

 Residual norm when dim(red L) =   7
 NEO root     CSF        orbital          total
    1     0.00220514     0.00070733     0.00231581 converged

 (NEONEX) NEO vector is converged.

   --- OUTPUT FROM SIRCNO     Keyword = FD+NO 


 Occupations of CAS natural orbitals:

 Symmetry  1 ( irrep A   in C1  )

   1.001182952   1.981519218   1.978972043   1.992639263   1.936533001
   0.063265199   0.019779845   0.018740740   0.007367740


 --- MACRO ITERATION 22 ---
 --------------------------

 2-el. integral transformation level 3: Total CPU and WALL times (sec)       0.784       0.787

 Total MCSCF energy       :          -958.537244173774297  (MACRO   22)

 - Nuclear repulsion      :           110.087004849310233
 - Inactive energy        :         -1050.893554795926093
 - Active energy          :           -17.730694227158484

 Norm of total gradient   :             0.002688326411
 -    of CI gradient      :             0.002542512278
 -    of orbital gradient :             0.000873344267
      Virial theorem: -V/T =      1.998977
@    MULPOP   C      -0.28; Cl1    -0.21; Cl2    -0.01; H1      0.16; H2      0.18; H3      0.16; 

 Residual norm when dim(red L) =  23
 NEO root     CSF        orbital          total
    1     0.00003986     0.00001977     0.00004450 converged

 (NEONEX) NEO vector is converged.

   --- OUTPUT FROM SIRCNO     Keyword = FD+NO 


 Occupations of CAS natural orbitals:

 Symmetry  1 ( irrep A   in C1  )

   1.001201689   1.981526261   1.978975160   1.992662050   1.936202382
   0.063581006   0.019769775   0.018732536   0.007349140


 --- MACRO ITERATION 23 ---
 --------------------------

 2-el. integral transformation level 3: Total CPU and WALL times (sec)       0.785       0.790

 Total MCSCF energy       :          -958.537247993402730  (MACRO   23)

 - Nuclear repulsion      :           110.087004849310233
 - Inactive energy        :         -1050.893745829719819
 - Active energy          :           -17.730507012993147

 Norm of total gradient   :             0.000067260512
 -    of CI gradient      :             0.000053466136
 -    of orbital gradient :             0.000040808685
      Virial theorem: -V/T =      1.998978
@    MULPOP   C      -0.28; Cl1    -0.21; Cl2    -0.01; H1      0.16; H2      0.18; H3      0.16; 

 Residual norm when dim(red L) =  15
 NEO root     CSF        orbital          total
    1     0.00000750     0.00000404     0.00000852 converged

 (NEONEX) NEO vector is converged.

   --- OUTPUT FROM SIRCNO     Keyword = FD+NO 


 Occupations of CAS natural orbitals:

 Symmetry  1 ( irrep A   in C1  )

   1.001201555   1.981526251   1.978975397   1.992662487   1.936207085
   0.063576295   0.019769890   0.018732441   0.007348600


 --- MACRO ITERATION 24 ---
 --------------------------

 2-el. integral transformation level 3: Total CPU and WALL times (sec)       0.778       0.781

 Total MCSCF energy       :          -958.537247996215115  (MACRO   24)

 - Nuclear repulsion      :           110.087004849310233
 - Inactive energy        :         -1050.893771500465846
 - Active energy          :           -17.730481345059506

 Norm of total gradient   :             0.000008526407
 -    of CI gradient      :             0.000007508864
 -    of orbital gradient :             0.000004039379
      Virial theorem: -V/T =      1.998978
@    MULPOP   C      -0.28; Cl1    -0.21; Cl2    -0.01; H1      0.16; H2      0.18; H3      0.16; 

 (SIRSTP) Energy difference;
 actual, predicted and ratio:  -0.000000002812385  -0.000000002810393    1.000709
 Close to convergence, ratio set to one.

 *** Optimization control: MCSCF converged ***
     Number of macro iterations used           24
     Number of micro iterations used          283
     Total number of CPU seconds used        62.44
     Total WALL time used (seconds)          63.18

--------------------------------------------------------------------------------


     .---------------------------------------------------------------.
     | MCSCF EKT IPs [a.u. & eV], pole strengths, and Dyson orbitals |
     `---------------------------------------------------------------'


     MCSCF EKT symmetry 1 ( A  ) in point group C1  -- 22 principal poles

   ============  ============  ============  ============  ============
     104.859552    104.794766     11.294953     10.599090     10.533303
    2853.373549   2851.610641    307.351315    288.415910    286.625752
   ------------  ------------  ------------  ------------  ------------
       1.000000      1.000000      0.999999      0.999998      1.000000
   ============  ============  ============  ============  ============
       1.000000      0.000000     -0.000000      0.000005     -0.000000
       0.000000     -1.000000      0.000000      0.000000      0.000000
      -0.000000     -0.000000     -0.999986     -0.000010     -0.000027
      -0.000000      0.000000     -0.000009      0.999857      0.000222
      -0.000000     -0.000000      0.000025      0.000220     -1.000000
      -0.000000     -0.000000     -0.000007      0.000018     -0.000001
       0.000000      0.000000     -0.000000     -0.000001      0.000000
       0.000000     -0.000000     -0.000000     -0.000000      0.000000
      -0.000000     -0.000000      0.000011      0.000005     -0.000010
      -0.000000      0.000000     -0.000000      0.000000      0.000000
      -0.000000     -0.000000     -0.000000      0.000000     -0.000000
      -0.000000      0.000000     -0.000034      0.000003      0.000009
       0.000000      0.000000      0.000082     -0.000052     -0.000006
       0.000000     -0.000000      0.000000     -0.000000     -0.000000
       0.000000      0.000000      0.000011     -0.000003     -0.000001
      -0.000000      0.000000      0.000000     -0.000000      0.000000
       0.000000      0.000000      0.000021     -0.000007     -0.000001
       0.000000     -0.000000      0.000005      0.000007     -0.000001
      -0.000008      0.000002      0.005126      0.000489     -0.000235
       0.000000     -0.000000      0.000002      0.000000     -0.000000
      -0.000259      0.000000     -0.000187      0.016831     -0.000085
       0.000000      0.000008     -0.000793      0.000067      0.000921
       0.000000     -0.000000     -0.000026     -0.000006     -0.000018
      -0.000000     -0.000000     -0.000049      0.000001      0.000001
      -0.000000     -0.000000      0.000000     -0.000000     -0.000000
       0.000002     -0.000000      0.000006     -0.000052      0.000001
   ============  ============  ============  ============  ============

   ============  ============  ============  ============  ============
       8.078604      8.074340      8.074340      8.012757      8.009576
     219.829984    219.713971    219.713963    218.038222    217.951662
   ------------  ------------  ------------  ------------  ------------
       1.000000      1.000000      1.000000      0.999999      1.000000
   ============  ============  ============  ============  ============
      -0.000000      0.000000      0.000000      0.000000     -0.000000
       0.000000     -0.000000      0.000000     -0.000000     -0.000000
       0.000010      0.000000      0.000000      0.000017      0.000000
       0.000024     -0.000002     -0.000000     -0.000007      0.000000
       0.000001     -0.000000     -0.000000     -0.000013     -0.000000
      -1.000000     -0.000011     -0.000000     -0.000130      0.000000
       0.000011     -1.000000      0.000307      0.000002     -0.000000
       0.000000     -0.000307     -1.000000      0.000000     -0.000000
      -0.000129      0.000002      0.000000      0.999994     -0.000000
      -0.000000      0.000000      0.000000     -0.000000     -1.000000
      -0.000001      0.000000      0.000000      0.000061     -0.000009
      -0.000000     -0.000000     -0.000000     -0.000037     -0.000000
       0.000013      0.000000      0.000000      0.000024      0.000000
       0.000000     -0.000000     -0.000000      0.000000      0.000000
       0.000002      0.000000      0.000000      0.000002      0.000000
       0.000000      0.000000      0.000000      0.000000      0.000000
       0.000004      0.000000      0.000000      0.000004      0.000000
      -0.000278     -0.000000     -0.000000      0.000070     -0.000000
       0.000619      0.000009      0.000000      0.000516      0.000000
       0.000000     -0.000000     -0.000003      0.000000      0.000002
      -0.000403      0.000029      0.000000      0.000122     -0.000000
       0.000397     -0.000002      0.000000     -0.003239     -0.000000
      -0.000005     -0.000000     -0.000000      0.000131     -0.000000
      -0.000000      0.000000      0.000000      0.000000      0.000000
      -0.000000      0.000000     -0.000000     -0.000000      0.000002
       0.000001     -0.000000      0.000000     -0.000001     -0.000000
   ============  ============  ============  ============  ============

   ============  ============  ============  ============  ============
       8.009575      1.080984      1.065094      0.940996      0.648272
     217.951618     29.415082     28.982673     25.605809     17.640384
   ------------  ------------  ------------  ------------  ------------
       1.000000      0.951776      0.888269      0.924306      0.980238
   ============  ============  ============  ============  ============
      -0.000000      0.000081      0.000216     -0.000043     -0.000000
       0.000000      0.000001     -0.000000     -0.000001     -0.000000
       0.000000     -0.001871      0.000044     -0.003284     -0.000000
       0.000000     -0.005469     -0.014327      0.002746     -0.000000
       0.000000      0.000169     -0.000119      0.000156      0.000000
       0.000001     -0.000287     -0.000355     -0.000329      0.000000
      -0.000000      0.000006      0.000025     -0.000010     -0.000000
      -0.000000      0.000000      0.000000     -0.000000     -0.000003
       0.000061      0.000505     -0.000190      0.000238      0.000000
       0.000009     -0.000000     -0.000000     -0.000000      0.000004
      -1.000000     -0.000001     -0.000005     -0.000001      0.000000
       0.000000      0.815562     -0.366647     -0.404677     -0.000039
       0.000000     -0.214914     -0.083582     -0.575102      0.000101
       0.000000     -0.000003     -0.000005      0.000002      0.152556
       0.000000     -0.014907     -0.002331     -0.033400      0.000007
      -0.000000     -0.000008     -0.000001     -0.000016     -0.200155
       0.000000     -0.025185     -0.006374     -0.053439      0.000015
      -0.000000     -0.007597      0.000067     -0.025535      0.000122
       0.000005     -0.325259      0.018709     -0.633375     -0.000438
       0.000000     -0.000112     -0.000005     -0.000245      0.957501
      -0.000004      0.338479      0.860728     -0.146881      0.000017
       0.000009      0.135096     -0.062629      0.020062      0.000071
       0.000000      0.027452     -0.034791      0.043440      0.000003
      -0.000001     -0.008667      0.000473     -0.011268      0.000007
       0.000000      0.000007     -0.000000      0.000009      0.009734
      -0.000000      0.007604      0.016293     -0.001936      0.000000
   ============  ============  ============  ============  ============

   ============  ============  ============  ============  ============
       0.643094      0.601808      0.505565      0.505535      0.501886
      17.499475     16.376019     13.757121     13.756313     13.657009
   ------------  ------------  ------------  ------------  ------------
       0.993183      0.564324      0.999641      0.998638      0.906317
   ============  ============  ============  ============  ============
      -0.000008      0.000002     -0.000000     -0.000000      0.000006
       0.000001      0.000003     -0.000000      0.000001      0.000008
       0.003102     -0.000241     -0.000003      0.000387     -0.000451
       0.000530     -0.000167      0.000001     -0.000002     -0.000442
      -0.000118      0.000335     -0.000002      0.000076      0.000832
       0.000413     -0.000216     -0.000002      0.000116      0.000536
       0.000004     -0.000001      0.000000      0.000001     -0.000001
       0.000000     -0.000000      0.000000      0.000000      0.000000
      -0.000230      0.001095     -0.000006      0.000300      0.002972
       0.000000     -0.000000     -0.000001      0.000000     -0.000000
       0.000003      0.000003     -0.000000      0.000001      0.000008
       0.078448     -0.053700      0.000220     -0.005995     -0.127500
      -0.755910     -0.013132      0.000246     -0.043609      0.080128
[...]

       No.  Residual tot.,    conf., and orb.    Bnorm      Frequency 
      ----------------------------------------------------------------
         1    2.22565D-02  8.95D-03  2.04D-02  7.77D-01    0.00000D+00

 ** RSPCTL MICROITERATION NUMBER    6

       No.  Residual tot.,    conf., and orb.    Bnorm      Frequency 
      ----------------------------------------------------------------
         1    1.29833D-02  1.11D-02  6.80D-03  7.94D-01    0.00000D+00

 ** RSPCTL MICROITERATION NUMBER    7

       No.  Residual tot.,    conf., and orb.    Bnorm      Frequency 
      ----------------------------------------------------------------
         1    8.27779D-03  2.69D-03  7.83D-03  7.97D-01    0.00000D+00

 ** RSPCTL MICROITERATION NUMBER    8

       No.  Residual tot.,    conf., and orb.    Bnorm      Frequency 
      ----------------------------------------------------------------
         1    6.44557D-03  4.08D-03  4.99D-03  8.02D-01    0.00000D+00

 ** RSPCTL MICROITERATION NUMBER    9

       No.  Residual tot.,    conf., and orb.    Bnorm      Frequency 
      ----------------------------------------------------------------
         1    8.33267D-03  5.08D-03  6.61D-03  8.10D-01    0.00000D+00

 ** RSPCTL MICROITERATION NUMBER   10

       No.  Residual tot.,    conf., and orb.    Bnorm      Frequency 
      ----------------------------------------------------------------
         1    1.21484D-02  6.32D-03  1.04D-02  8.39D-01    0.00000D+00

 ** RSPCTL MICROITERATION NUMBER   11

       No.  Residual tot.,    conf., and orb.    Bnorm      Frequency 
      ----------------------------------------------------------------
         1    1.05819D-02  7.66D-03  7.30D-03  8.73D-01    0.00000D+00

 ** RSPCTL MICROITERATION NUMBER   12

       No.  Residual tot.,    conf., and orb.    Bnorm      Frequency 
      ----------------------------------------------------------------
         1    9.23985D-03  3.50D-03  8.55D-03  9.03D-01    0.00000D+00

 ** RSPCTL MICROITERATION NUMBER   13

       No.  Residual tot.,    conf., and orb.    Bnorm      Frequency 
      ----------------------------------------------------------------
         1    5.56640D-03  4.57D-03  3.18D-03  9.23D-01    0.00000D+00

 ** RSPCTL MICROITERATION NUMBER   14

       No.  Residual tot.,    conf., and orb.    Bnorm      Frequency 
      ----------------------------------------------------------------
         1    3.68529D-03  1.14D-03  3.50D-03  9.28D-01    0.00000D+00

 ** RSPCTL MICROITERATION NUMBER   15

       No.  Residual tot.,    conf., and orb.    Bnorm      Frequency 
      ----------------------------------------------------------------
         1    2.17719D-03  1.60D-03  1.48D-03  9.35D-01    0.00000D+00

 ** RSPCTL MICROITERATION NUMBER   16

       No.  Residual tot.,    conf., and orb.    Bnorm      Frequency 
      ----------------------------------------------------------------
         1    1.61786D-03  3.66D-04  1.58D-03  9.36D-01    0.00000D+00

 ** RSPCTL MICROITERATION NUMBER   17

       No.  Residual tot.,    conf., and orb.    Bnorm      Frequency 
      ----------------------------------------------------------------
         1    8.53934D-04  5.75D-04  6.32D-04  9.38D-01    0.00000D+00

 *** THE REQUESTED    1 SOLUTION VECTORS CONVERGED

 Convergence of RSP solution vectors, threshold = 1.00D-03
 ---------------------------------------------------------------
 (dimension of paired reduced space:   36)
 RSP solution vector no.    1; norm of residual   9.10D-04

 *** RSPCTL MICROITERATIONS CONVERGED


           Final output of second order properties from linear response
           ------------------------------------------------------------


@ Spin symmetry of operators: singlet

 Note that minus the linear response function: - << A; B >>(omega) is printed.
 The results are of quadratic accuracy using Sellers formula.

@ FREQUENCY INDEPENDENT SECOND ORDER PROPERTIES

@ -<< AM010600 ; AM010600 >> =  1.147803120232E+00
@ -<< AM010600 ; AM021700 >> = -6.463743381338E-01
@ -<< AM010600 ; AM031700 >> = -5.699638761992E-03
@ -<< AM010600 ; AM040100 >> = -1.621573753545E-01
@ -<< AM010600 ; AM050100 >> = -1.714016968210E-01
@ -<< AM010600 ; AM060100 >> = -1.621778366558E-01
@ -<< AM010600 ; AM01060x >> =  6.986885246753E-02
@ -<< AM010600 ; AM01060y >> =  3.238776402440E-03
@ -<< AM010600 ; AM01060z >> = -6.581891027843E-03
@ -<< AM010600 ; AM02170x >> = -3.992203125367E-01
@ -<< AM010600 ; AM02170y >> =  6.806849758457E-05
@ -<< AM010600 ; AM02170z >> = -8.091350557501E-04
@ -<< AM010600 ; AM03170x >> =  3.417615024770E-02
@ -<< AM010600 ; AM03170y >> =  9.102162261410E-04
@ -<< AM010600 ; AM03170z >> = -1.707904805617E-03
@ -<< AM010600 ; AM04010x >> =  2.009149335599E-02
@ -<< AM010600 ; AM04010y >> = -1.220185335823E-01
@ -<< AM010600 ; AM04010z >> =  7.671945600716E-03
@ -<< AM010600 ; AM05010x >> =  2.066895916868E-02
@ -<< AM010600 ; AM05010y >> =  5.615924761263E-02
@ -<< AM010600 ; AM05010z >> = -1.141005868210E-01
@ -<< AM010600 ; AM06010x >> =  1.997181425015E-02
@ -<< AM010600 ; AM06010y >> =  6.839988399132E-02
@ -<< AM010600 ; AM06010z >> =  1.013752598748E-01
@ -<< AM021700 ; AM021700 >> =  1.263096715953E+00
@ -<< AM021700 ; AM031700 >> = -2.539119751667E-01
@ -<< AM021700 ; AM040100 >> = -1.196105341397E-01
@ -<< AM021700 ; AM050100 >> = -1.236158403184E-01
@ -<< AM021700 ; AM060100 >> = -1.196108003715E-01
@ -<< AM021700 ; AM01060x >> = -1.684754352789E-03
@ -<< AM021700 ; AM01060y >> =  1.074201461158E-03
@ -<< AM021700 ; AM01060z >> = -2.140929599622E-03
@ -<< AM021700 ; AM02170x >> =  7.113988085785E-01
@ -<< AM021700 ; AM02170y >> =  3.053305860865E-05
@ -<< AM021700 ; AM02170z >> =  1.124886931622E-03
@ -<< AM021700 ; AM03170x >> =  1.788432687238E-02
@ -<< AM021700 ; AM03170y >> =  1.825247232442E-03
@ -<< AM021700 ; AM03170z >> = -3.852881640156E-03
@ -<< AM021700 ; AM04010x >> =  2.688157667645E-02
@ -<< AM021700 ; AM04010y >> = -4.202767259173E-02
@ -<< AM021700 ; AM04010z >> =  2.597248744555E-03
@ -<< AM021700 ; AM05010x >> =  2.725211017771E-02
@ -<< AM021700 ; AM05010y >> =  1.906346753091E-02
@ -<< AM021700 ; AM05010z >> = -3.870715445213E-02
@ -<< AM021700 ; AM06010x >> =  2.682033482100E-02
@ -<< AM021700 ; AM06010y >> =  2.361576543208E-02
@ -<< AM021700 ; AM06010z >> =  3.490059251792E-02
@ -<< AM031700 ; AM031700 >> =  3.146744972819E-01
@ -<< AM031700 ; AM040100 >> = -1.873524247185E-02
@ -<< AM031700 ; AM050100 >> = -1.757939808058E-02
@ -<< AM031700 ; AM060100 >> = -1.873877133773E-02
@ -<< AM031700 ; AM01060x >> = -7.899262191125E-02
@ -<< AM031700 ; AM01060y >> =  7.537678799192E-04
@ -<< AM031700 ; AM01060z >> = -1.683424222771E-03
@ -<< AM031700 ; AM02170x >> = -1.402005264141E-01
@ -<< AM031700 ; AM02170y >> =  3.014651729245E-05
@ -<< AM031700 ; AM02170z >> = -2.985283811137E-04
@ -<< AM031700 ; AM03170x >> = -8.841471243424E-02
@ -<< AM031700 ; AM03170y >> = -4.510493938249E-04
@ -<< AM031700 ; AM03170z >> =  9.152537586821E-04
@ -<< AM031700 ; AM04010x >> = -1.304979441114E-02
@ -<< AM031700 ; AM04010y >> =  1.043226889229E-02
@ -<< AM031700 ; AM04010z >> = -6.928797466700E-04
@ -<< AM031700 ; AM05010x >> = -1.278044568785E-02
@ -<< AM031700 ; AM05010y >> = -4.585886661707E-03
@ -<< AM031700 ; AM05010z >> =  9.298243891115E-03
@ -<< AM031700 ; AM06010x >> = -1.304605708812E-02
@ -<< AM031700 ; AM06010y >> = -5.836145734148E-03
@ -<< AM031700 ; AM06010z >> = -8.700164390048E-03
@ -<< AM040100 ; AM040100 >> =  3.932853429399E-01
@ -<< AM040100 ; AM050100 >> = -4.740458136886E-02
@ -<< AM040100 ; AM060100 >> = -4.537710883045E-02
@ -<< AM040100 ; AM01060x >> =  3.428439091549E-03
@ -<< AM040100 ; AM01060y >> =  1.804475079876E-01
@ -<< AM040100 ; AM01060z >> = -1.112391182954E-02
@ -<< AM040100 ; AM02170x >> = -5.657627471456E-02
@ -<< AM040100 ; AM02170y >> = -1.140497158587E-02
@ -<< AM040100 ; AM02170z >> =  7.912830124397E-04
@ -<< AM040100 ; AM03170x >> =  1.139638850533E-02
@ -<< AM040100 ; AM03170y >> = -5.212575378977E-04
@ -<< AM040100 ; AM03170z >> =  1.865039509121E-04
@ -<< AM040100 ; AM04010x >> = -3.064116603484E-02
@ -<< AM040100 ; AM04010y >> =  1.943079891323E-01
@ -<< AM040100 ; AM04010z >> = -1.254342382542E-02
@ -<< AM040100 ; AM05010x >> = -1.730308523453E-03
@ -<< AM040100 ; AM05010y >> =  2.224966395837E-02
@ -<< AM040100 ; AM05010z >> = -1.181987708605E-02
@ -<< AM040100 ; AM06010x >> = -1.702491447342E-03
@ -<< AM040100 ; AM06010y >> =  2.309515915372E-02
@ -<< AM040100 ; AM06010z >> =  8.364312957446E-03
@ -<< AM050100 ; AM050100 >> =  4.074088272663E-01
@ -<< AM050100 ; AM060100 >> = -4.740736334590E-02
@ -<< AM050100 ; AM01060x >> =  3.749477533264E-03
@ -<< AM050100 ; AM01060y >> = -8.426102191133E-02
@ -<< AM050100 ; AM01060z >> =  1.712670475739E-01
@ -<< AM050100 ; AM02170x >> = -5.883105574196E-02
@ -<< AM050100 ; AM02170y >> =  5.018754302366E-03
@ -<< AM050100 ; AM02170z >> = -1.029643945621E-02
@ -<< AM050100 ; AM03170x >> =  1.355856103546E-02
@ -<< AM050100 ; AM03170y >> = -1.929936887885E-03
@ -<< AM050100 ; AM03170z >> =  3.944442180270E-03
@ -<< AM050100 ; AM04010x >> = -1.616000593428E-03
@ -<< AM050100 ; AM04010y >> = -1.997331600051E-02
@ -<< AM050100 ; AM04010z >> =  1.616208627783E-02
@ -<< AM050100 ; AM05010x >> = -3.170027018742E-02
@ -<< AM050100 ; AM05010y >> = -8.867238303505E-02
@ -<< AM050100 ; AM05010z >> =  1.801721154400E-01
@ -<< AM050100 ; AM06010x >> = -1.633655086830E-03
@ -<< AM050100 ; AM06010y >> = -6.210625803623E-04
@ -<< AM050100 ; AM06010z >> =  2.568727693601E-02
@ -<< AM060100 ; AM060100 >> =  3.933121305621E-01
@ -<< AM060100 ; AM01060x >> =  3.637395182861E-03
@ -<< AM060100 ; AM01060y >> = -1.012589002830E-01
@ -<< AM060100 ; AM01060z >> = -1.497333332379E-01
@ -<< AM060100 ; AM02170x >> = -5.658267635966E-02
@ -<< AM060100 ; AM02170y >> =  6.260335215298E-03
@ -<< AM060100 ; AM02170z >> =  9.486916523951E-03
@ -<< AM060100 ; AM03170x >> =  1.140183630153E-02
@ -<< AM060100 ; AM03170y >> =  1.730497096137E-04
@ -<< AM060100 ; AM03170z >> =  5.188862050102E-04
@ -<< AM060100 ; AM04010x >> = -1.666155851594E-03
@ -<< AM060100 ; AM04010y >> = -2.071981590585E-02
@ -<< AM060100 ; AM04010z >> = -1.319533160776E-02
@ -<< AM060100 ; AM05010x >> = -1.710034798628E-03
@ -<< AM060100 ; AM05010y >> = -4.214024202928E-03
@ -<< AM060100 ; AM05010z >> = -2.484268961859E-02
@ -<< AM060100 ; AM06010x >> = -3.041000479242E-02
@ -<< AM060100 ; AM06010y >> = -1.086531894378E-01
@ -<< AM060100 ; AM06010z >> = -1.616276711465E-01
@ -<< AM01060x ; AM01060x >> =  1.399758872918E+00
@ -<< AM01060x ; AM01060y >> = -1.884534898870E-04
@ -<< AM01060x ; AM01060z >> =  1.447689625131E-04
@ -<< AM01060x ; AM02170x >> = -3.912440048643E-01
@ -<< AM01060x ; AM02170y >> = -6.652248924811E-04
@ -<< AM01060x ; AM02170z >> =  2.580132704017E-04
@ -<< AM01060x ; AM03170x >> = -3.047822708732E-01
@ -<< AM01060x ; AM03170y >> = -8.385217014601E-04
@ -<< AM01060x ; AM03170z >> =  1.110947371302E-03
@ -<< AM01060x ; AM04010x >> =  1.301518514921E-01
@ -<< AM01060x ; AM04010y >> =  2.965005579853E-02
@ -<< AM01060x ; AM04010z >> = -1.932981758171E-03
@ -<< AM01060x ; AM05010x >> =  1.304166027820E-01
@ -<< AM01060x ; AM05010y >> = -1.339224903493E-02
@ -<< AM01060x ; AM05010z >> =  2.707413380336E-02
@ -<< AM01060x ; AM06010x >> =  1.302034788329E-01
@ -<< AM01060x ; AM06010y >> = -1.660966771760E-02
@ -<< AM01060x ; AM06010z >> = -2.463780195799E-02
@ -<< AM01060y ; AM01060y >> =  1.415846831894E+00
@ -<< AM01060y ; AM01060z >> =  3.548118713227E-03
@ -<< AM01060y ; AM02170x >> = -2.187342432545E-03
@ -<< AM01060y ; AM02170y >> =  2.580193520417E-01
@ -<< AM01060y ; AM02170z >> =  6.680357104602E-04
@ -<< AM01060y ; AM03170x >> =  1.933477387328E-03
@ -<< AM01060y ; AM03170y >> =  3.375710058036E-02
@ -<< AM01060y ; AM03170z >> = -5.556726339530E-04
@ -<< AM01060y ; AM04010x >> =  2.670823564247E-02
@ -<< AM01060y ; AM04010y >> =  1.031515587764E-01
@ -<< AM01060y ; AM04010z >> =  6.790543998627E-03
@ -<< AM01060y ; AM05010x >> = -1.173890918352E-02
@ -<< AM01060y ; AM05010y >> =  1.953782323533E-01
@ -<< AM01060y ; AM05010z >> =  4.596275843774E-02
@ -<< AM01060y ; AM06010x >> = -1.493785008567E-02
@ -<< AM01060y ; AM06010y >> =  1.802678589801E-01
@ -<< AM01060y ; AM06010z >> = -5.212205938352E-02
@ -<< AM01060z ; AM01060z >> =  1.410325820366E+00
@ -<< AM01060z ; AM02170x >> =  3.409306779084E-03
@ -<< AM01060z ; AM02170y >> =  6.714250180923E-04
@ -<< AM01060z ; AM02170z >> =  2.569852990451E-01
@ -<< AM01060z ; AM03170x >> = -4.539538389409E-03
@ -<< AM01060z ; AM03170y >> = -5.619086839520E-04
@ -<< AM01060z ; AM03170z >> =  3.457044295361E-02
@ -<< AM01060z ; AM04010x >> = -1.794991112807E-03
@ -<< AM01060z ; AM04010y >> =  7.351052293014E-03
@ -<< AM01060z ; AM04010z >> =  2.151812330539E-01
@ -<< AM01060z ; AM05010x >> =  2.371626540322E-02
@ -<< AM01060z ; AM05010y >> =  4.596062141757E-02
@ -<< AM01060z ; AM05010z >> =  1.246384335004E-01
@ -<< AM01060z ; AM06010x >> = -2.224400113802E-02
@ -<< AM01060z ; AM06010y >> = -5.268035829405E-02
@ -<< AM01060z ; AM06010z >> =  1.379795275112E-01
@ -<< AM02170x ; AM02170x >> =  5.970268470519E+00
@ -<< AM02170x ; AM02170y >> = -7.064894802523E-04
@ -<< AM02170x ; AM02170z >> =  9.321921823825E-04
@ -<< AM02170x ; AM03170x >> =  2.164893198821E-02
@ -<< AM02170x ; AM03170y >> =  3.744886461785E-04
@ -<< AM02170x ; AM03170z >> = -7.525676192954E-04
@ -<< AM02170x ; AM04010x >> = -1.297557137305E-02
@ -<< AM02170x ; AM04010y >> = -6.235197152981E-02
@ -<< AM02170x ; AM04010z >> =  4.302593079700E-03
@ -<< AM02170x ; AM05010x >> = -1.294219041656E-02
@ -<< AM02170x ; AM05010y >> =  2.723242026374E-02
@ -<< AM02170x ; AM05010z >> = -5.537538713237E-02
@ -<< AM02170x ; AM06010x >> = -1.302309421331E-02
@ -<< AM02170x ; AM06010y >> =  3.458845431846E-02
@ -<< AM02170x ; AM06010z >> =  5.198202796082E-02
@ -<< AM02170y ; AM02170y >> =  6.265559872494E+00
@ -<< AM02170y ; AM02170z >> = -1.703978528881E-04
@ -<< AM02170y ; AM03170x >> =  3.560472136666E-04
@ -<< AM02170y ; AM03170y >> = -3.195756920896E-02
@ -<< AM02170y ; AM03170z >> =  8.955974553327E-04
@ -<< AM02170y ; AM04010x >> =  2.712096525010E-02
@ -<< AM02170y ; AM04010y >> =  3.002047969422E-02
@ -<< AM02170y ; AM04010z >> = -2.108224324647E-03
@ -<< AM02170y ; AM05010x >> = -1.230301323950E-02
@ -<< AM02170y ; AM05010y >> =  5.744435286705E-03
@ -<< AM02170y ; AM05010z >> = -1.044629659345E-02
@ -<< AM02170y ; AM06010x >> = -1.515696859687E-02
@ -<< AM02170y ; AM06010y >> =  9.777164204980E-03
@ -<< AM02170y ; AM06010z >> =  1.347351568701E-02
@ -<< AM02170z ; AM02170z >> =  6.265765517742E+00
@ -<< AM02170z ; AM03170x >> = -6.172847002211E-04
@ -<< AM02170z ; AM03170y >> =  8.960424050488E-04
@ -<< AM02170z ; AM03170z >> = -3.331946148329E-02
@ -<< AM02170z ; AM04010x >> = -1.792990393280E-03
@ -<< AM02170z ; AM04010y >> = -2.183683687237E-03
@ -<< AM02170z ; AM04010z >> =  1.047177764769E-03
@ -<< AM02170z ; AM05010x >> =  2.498184046314E-02
@ -<< AM02170z ; AM05010y >> = -1.038142570780E-02
@ -<< AM02170z ; AM05010z >> =  2.175701710014E-02
@ -<< AM02170z ; AM06010x >> = -2.260966654706E-02
@ -<< AM02170z ; AM06010y >> =  1.348355891764E-02
@ -<< AM02170z ; AM06010z >> =  2.132115274857E-02
@ -<< AM03170x ; AM03170x >> =  6.097765170146E+00
@ -<< AM03170x ; AM03170y >> = -4.746533760896E-03
@ -<< AM03170x ; AM03170z >> =  8.719771074014E-03
@ -<< AM03170x ; AM04010x >> = -4.258378858144E-02
@ -<< AM03170x ; AM04010y >> =  5.457898646894E-02
@ -<< AM03170x ; AM04010z >> = -3.601943631411E-03
@ -<< AM03170x ; AM05010x >> = -4.263884263354E-02
@ -<< AM03170x ; AM05010y >> = -2.398085124329E-02
@ -<< AM03170x ; AM05010z >> =  4.864116961346E-02
@ -<< AM03170x ; AM06010x >> = -4.260319197317E-02
@ -<< AM03170x ; AM06010y >> = -3.056715950124E-02
@ -<< AM03170x ; AM06010z >> = -4.554411833494E-02
@ -<< AM03170y ; AM03170y >> =  6.666341465631E+00
@ -<< AM03170y ; AM03170z >> =  4.386510183758E-03
@ -<< AM03170y ; AM04010x >> = -5.091106927939E-02
@ -<< AM03170y ; AM04010y >> =  6.478016773566E-02
@ -<< AM03170y ; AM04010z >> = -3.333610037618E-03
@ -<< AM03170y ; AM05010x >> =  2.270869548115E-02
@ -<< AM03170y ; AM05010y >> =  2.437859917956E-02
@ -<< AM03170y ; AM05010z >> = -1.970405433561E-02
@ -<< AM03170y ; AM06010x >> =  2.824260299528E-02
@ -<< AM03170y ; AM06010y >> =  2.994483825084E-02
@ -<< AM03170y ; AM06010z >> =  2.320723651296E-02
@ -<< AM03170z ; AM03170z >> =  6.659852595770E+00
@ -<< AM03170z ; AM04010x >> =  3.430621869822E-03
@ -<< AM03170z ; AM04010y >> = -3.600240163225E-03
@ -<< AM03170z ; AM04010z >> =  1.460468176832E-02
@ -<< AM03170z ; AM05010x >> = -4.625639980896E-02
@ -<< AM03170z ; AM05010y >> = -1.978552618837E-02
@ -<< AM03170z ; AM05010z >> =  5.480356453399E-02
@ -<< AM03170z ; AM06010x >> =  4.236083237497E-02
@ -<< AM03170z ; AM06010y >> =  2.355526937101E-02
@ -<< AM03170z ; AM06010z >> =  4.948386108953E-02
@ -<< AM04010x ; AM04010x >> =  1.628434944134E-01
@ -<< AM04010x ; AM04010y >> = -1.809047157435E-02
@ -<< AM04010x ; AM04010z >> =  1.333957931767E-03
@ -<< AM04010x ; AM05010x >> = -3.296834522505E-03
@ -<< AM04010x ; AM05010y >> = -9.356706688513E-05
@ -<< AM04010x ; AM05010z >> = -1.732705293163E-03
@ -<< AM04010x ; AM06010x >> = -3.187651764176E-03
@ -<< AM04010x ; AM06010y >> =  1.680250254099E-04
@ -<< AM04010x ; AM06010z >> =  1.848081994646E-03
@ -<< AM04010y ; AM04010y >> =  2.919552512870E-01
@ -<< AM04010y ; AM04010z >> = -7.403561373945E-03
@ -<< AM04010y ; AM05010x >> = -1.620933756282E-03
@ -<< AM04010y ; AM05010y >> =  1.139012483536E-02
@ -<< AM04010y ; AM05010z >> = -6.216626595538E-03
@ -<< AM04010y ; AM06010x >> = -1.591068545004E-03
@ -<< AM04010y ; AM06010y >> =  1.248948669543E-02
@ -<< AM04010y ; AM06010z >> =  4.483573294549E-03
@ -<< AM04010z ; AM04010z >> =  1.818454042786E-01
@ -<< AM04010z ; AM05010x >> = -7.250552195264E-04
@ -<< AM04010z ; AM05010y >> = -6.022299395842E-03
@ -<< AM04010z ; AM05010z >> =  6.339755507158E-03
@ -<< AM04010z ; AM06010x >> =  9.814611298128E-04
@ -<< AM04010z ; AM06010y >> =  4.706714227607E-03
@ -<< AM04010z ; AM06010z >> =  5.415403491199E-03
@ -<< AM05010x ; AM05010x >> =  1.605258446462E-01
@ -<< AM05010x ; AM05010y >> =  7.867602701007E-03
@ -<< AM05010x ; AM05010z >> = -1.601992987394E-02
@ -<< AM05010x ; AM06010x >> = -3.301090487046E-03
@ -<< AM05010x ; AM06010y >> =  1.556027228393E-03
@ -<< AM05010x ; AM06010z >> =  8.296926093086E-04
@ -<< AM05010y ; AM05010y >> =  1.991799942809E-01
@ -<< AM05010y ; AM05010z >> = -4.181785125236E-02
@ -<< AM05010y ; AM06010x >> =  1.421738388710E-03
@ -<< AM05010y ; AM06010y >> =  2.305957914290E-03
@ -<< AM05010y ; AM06010z >> =  7.849493464193E-04
@ -<< AM05010z ; AM05010z >> =  2.635676560809E-01
@ -<< AM05010z ; AM06010x >> = -9.986238226306E-04
@ -<< AM05010z ; AM06010y >> =  9.741482190139E-04
@ -<< AM05010z ; AM06010z >> =  1.542834051824E-02
@ -<< AM06010x ; AM06010x >> =  1.628000861285E-01
@ -<< AM06010x ; AM06010y >> =  9.873068636400E-03
@ -<< AM06010x ; AM06010z >> =  1.501027578045E-02
@ -<< AM06010y ; AM06010y >> =  2.157082063077E-01
@ -<< AM06010y ; AM06010z >> =  5.136114995286E-02
@ -<< AM06010z ; AM06010z >> =  2.581536225689E-01


 Time used in linear response calculation is     68.62 CPU seconds for symmetry 1

  Total CPU  time used in RESPONSE:  1 minute  23 seconds
  Total wall time used in RESPONSE:  1 minute  24 seconds


                   .-------------------------------------------.
                   | End of Dynamic Property Section (RESPONS) |
                   `-------------------------------------------'

  Total CPU  time used in DALTON:  2 minutes 28 seconds
  Total wall time used in DALTON:  2 minutes 30 seconds

 NOTE:    1 warnings have been issued.
 Check output, result, and error files for "WARNING".

 
     Date and time (Linux)  : Tue Feb 25 14:55:15 2025
     Host name              : s44n06.grendel.cscaa.dk                 
