

     ************************************************************************
     *************** Dalton - An Electronic Structure Program ***************
     ************************************************************************

    This is output from DALTON release Dalton2024.0-dev (2024)
         ( Web site: http://daltonprogram.org )

   ----------------------------------------------------------------------------

    NOTE:
     
    Dalton is an experimental code for the evaluation of molecular
    properties using (MC)SCF, DFT, CI, and CC wave functions.
    The authors accept no responsibility for the performance of
    the code or for the correctness of the results.
     
    The code (in whole or part) is provided under a licence and
    is not to be reproduced for further distribution without
    the written permission of the authors or their representatives.
     
    See the home page "http://daltonprogram.org" for further information.
     
    If results obtained with this code are published,
    the appropriate citations would be both of:
     
       K. Aidas, C. Angeli, K. L. Bak, V. Bakken,
       R. Bast, L. Boman, O. Christiansen, R. Cimiraglia,
       S. Coriani, P. Dahle, E. K. Dalskov, U. Ekstroem,
       T. Enevoldsen, J. J. Eriksen, P. Ettenhuber, B. Fernandez,
       L. Ferrighi, H. Fliegl, L. Frediani, K. Hald, A. Halkier,
       C. Haettig, H. Heiberg, T. Helgaker, A. C. Hennum,
       H. Hettema, E. Hjertenaes, S. Hoest, I.-M. Hoeyvik,
       M. F. Iozzi, B. Jansik, H. J. Aa. Jensen, D. Jonsson,
       P. Joergensen, J. Kauczor, S. Kirpekar,
       T. Kjaergaard, W. Klopper, S. Knecht, R. Kobayashi, H. Koch,
       J. Kongsted, A. Krapp, K. Kristensen, A. Ligabue,
       O. B. Lutnaes, J. I. Melo, K. V. Mikkelsen, R. H. Myhre,
       C. Neiss, C. B. Nielsen, P. Norman, J. Olsen,
       J. M. H. Olsen, A. Osted, M. J. Packer, F. Pawlowski,
       T. B. Pedersen, P. F. Provasi, S. Reine, Z. Rinkevicius,
       T. A. Ruden, K. Ruud, V. Rybkin, P. Salek, C. C. M. Samson,
       A. Sanchez de Meras, T. Saue, S. P. A. Sauer,
       B. Schimmelpfennig, K. Sneskov, A. H. Steindal,
       K. O. Sylvester-Hvid, P. R. Taylor, A. M. Teale,
       E. I. Tellgren, D. P. Tew, A. J. Thorvaldsen, L. Thoegersen,
       O. Vahtras, M. A. Watson, D. J. D. Wilson, M. Ziolkowski
       and H. Agren,
       "The Dalton quantum chemistry program system",
       WIREs Comput. Mol. Sci. 2014, 4:269-284 (doi: 10.1002/wcms.1172)
     
    and
     
       Dalton, a molecular electronic structure program,
       Release Dalton2024.0-dev (2024), see http://daltonprogram.org
   ----------------------------------------------------------------------------

    Authors in alphabetical order (Major contribution(s) in parenthesis):

  Kestutis Aidas,              Vilnius University,        Lithuania   (QM/MM)
  Celestino Angeli,            University of Ferrara,     Italy       (NEVPT2)
  Juan J. Aucar,               Northeast National UniversiArgentina   (LRESC, Relativistic Effects on EFG)
  Keld L. Bak,                 UNI-C,                     Denmark     (AOSOPPA, non-adiabatic coupling, magnetic properties)
  Vebjoern Bakken,             University of Oslo,        Norway      (DALTON; geometry optimizer, symmetry detection)
  Radovan Bast,                UiT The Arctic U. of NorwayNorway      (DALTON installation and execution frameworks)
  Pablo Baudin,                University of Valencia,    Spain       (Cholesky excitation energies)
  Linus Boman,                 NTNU,                      Norway      (Cholesky decomposition and subsystems)
  Bruno N. Cabral Tenorio,     Technical Univ. of Denmark,Denmark     (Lanczos-based CC methods)
  Ove Christiansen,            Aarhus University,         Denmark     (CC module)
  Renzo Cimiraglia,            University of Ferrara,     Italy       (NEVPT2)
  Sonia Coriani,               Technical Univ. of Denmark,Denmark     (CC and RESPONS modules)
  Janusz Cukras,               University of Warsaw,      Poland      (MChD in RESPONS)
  Paal Dahle,                  University of Oslo,        Norway      (Parallelization)
  Erik K. Dalskov,             UNI-C,                     Denmark     (SOPPA)
  Thomas Enevoldsen,           Univ. of Southern Denmark, Denmark     (SOPPA)
  Janus J. Eriksen,            Aarhus University,         Denmark     (Polarizable embedding, TDA)
  Rasmus Faber,                Technical Univ. of Denmark,Denmark     (Vib.avg. NMR w. SOPPA, parallel AO-SOPPA, CVS-CC and EOMCC)
  Tobias Fahleson,             KTH Stockholm,             Sweden      (Damped cubic response)
  Berta Fernandez,             U. of Santiago de CompostelSpain       (Doublet spin, ESR in RESPONS)
  Lara Ferrighi,               Aarhus University,         Denmark     (PCM Cubic response)
  Heike Fliegl,                University of Oslo,        Norway      (CCSD(R12))
  Luca Frediani,               UiT The Arctic U. of NorwayNorway      (PCM)
  Emmanuel Fromager,           Univ. Strasbourg,          France      (MC-srDFT)
  Bin Gao,                     UiT The Arctic U. of NorwayNorway      (Gen1Int library)
  Andre S. P. Gomes,           CNRS/Universite de Lille,  France      (Frozen density embedding)
  Christof Haettig,            Ruhr-University Bochum,    Germany     (CC module)
  Kasper Hald,                 Aarhus University,         Denmark     (CC module)
  Asger Halkier,               Aarhus University,         Denmark     (CC module)
  Frederik Beyer Hansen,       University of Copenhagen,  Denmark     (Parallel AO-SOPPA)
  Erik D. Hedegaard,           Univ. of Southern Denmark, Denmark     (Polarizable embedding, QM/MM, and MC-srDFT)
  Hanne Heiberg,               University of Oslo,        Norway      (Geometry analysis, selected one-electron integrals)
  Trygve Helgaker,             University of Oslo,        Norway      (DALTON; ABACUS, ERI, DFT modules, London, and much more)
  Alf Christian Hennum,        University of Oslo,        Norway      (Parity violation)
  Hinne Hettema,               University of Auckland,    New Zealand (Quadratic response in RESPONS; SIRIUS supersymmetry)
  Andreas E. Hillers-Bendtsen, University of Copenhagen,  Denmark     (MP3)
  Eirik Hjertenaes,            NTNU,                      Norway      (Cholesky decomposition)
  Nicolai Machholdt Hoeyer,    Aarhus University,         Denmark     (MP3)
  Pi A. B. Haase,              University of Copenhagen,  Denmark     (Triplet AO-SOPPA)
  Maria Francesca Iozzi,       University of Oslo,        Norway      (RPA)
  Christoph Jacob,             TU Braunschweig            Germany     (Frozen density embedding)
  Brano Jansik,                Technical Univ. of Ostrava Czech Rep.  (DFT cubic response)
  Hans Joergen Aa. Jensen,     Univ. of Southern Denmark, Denmark     (DALTON; SIRIUS, RESPONS, ABACUS, MC-srDFT, and much more)
  Dan Jonsson,                 UiT The Arctic U. of NorwayNorway      (Cubic response in RESPONS module)
  Poul Joergensen,             Aarhus University,         Denmark     (RESPONS, ABACUS, and CC modules)
  Maciej Kaminski,             University of Warsaw,      Poland      (CPPh in RESPONS)
  Joanna Kauczor,              Linkoeping University,     Sweden      (Complex polarization propagator (CPP) module)
  Sheela Kirpekar,             Univ. of Southern Denmark, Denmark     (Mass-velocity & Darwin integrals)
  Frederik Oersted Kjeldal,    Technical Univ. of Denmark,Denmark     (MP3)
  Erik Kjellgren,              Univ. of Southern Denmark, Denmark     (MC-srDFT)
  Wim Klopper,                 KIT Karlsruhe,             Germany     (R12 code in CC, SIRIUS, and ABACUS modules)
  Stefan Knecht,               ETH Zurich,                Switzerland (Parallel CI and MCSCF, MC-srDFT)
  Rika Kobayashi,              Australian National Univ., Australia   (DIIS in CC, London in MCSCF)
  Henrik Koch,                 NTNU,                      Norway      (CC module, Cholesky decomposition)
  Jacob Kongsted,              Univ. of Southern Denmark, Denmark     (Polarizable embedding, polarizable density embedding, QM/MM)
  Andrea Ligabue,              University of Modena,      Italy       (CTOCD, AOSOPPA)
  Nanna H. List,               Univ. of Southern Denmark, Denmark     (Polarizable embedding)
  Ola B. Lutnaes,              University of Oslo,        Norway      (DFT Hessian)
  Juan I. Melo,                University of Buenos Aires,Argentina   (LRESC, Relativistic Effects on NMR Shieldings)
  Kurt V. Mikkelsen,           University of Copenhagen,  Denmark     (MC-SCRF, QM/MM, and MP3)
  Rolf H. Myhre,               NTNU,                      Norway      (Subsystems and CC3)
  Christian Neiss,             Univ. Erlangen-Nuernberg,  Germany     (CCSD(R12))
  Christian B. Nielsen,        University of Copenhagen,  Denmark     (QM/MM)
  Patrick Norman,              KTH Stockholm,             Sweden      (Cubic response and complex frequency response in RESPONS)
  Jeppe Olsen,                 Aarhus University,         Denmark     (SIRIUS CI/density modules)
  Jogvan Magnus H. Olsen,      Aarhus University,         Denmark     (Polarizable embedding and polarizable density embedding)
  Anders Osted,                Copenhagen University,     Denmark     (QM/MM)
  Martin J. Packer,            University of Sheffield,   UK          (SOPPA)
  Filip Pawlowski,             Kazimierz Wielki UniversityPoland      (CC3)
  Morten N. Pedersen,          Univ. of Southern Denmark, Denmark     (Polarizable embedding)
  Thomas B. Pedersen,          University of Oslo,        Norway      (Cholesky decomposition)
  Patricio F. Provasi,         University of Northeastern,Argentina   (Analysis of coupling constants in localized orbitals)
  Peter Reinholdt,             Univ. of Southern Denmark, Denmark     (Polarizable embedding and polarizable density embedding)
  Zilvinas Rinkevicius,        KTH Stockholm,             Sweden      (open-shell DFT, ESR)
  Elias Rudberg,               KTH Stockholm,             Sweden      (DFT grid and basis info)
  Torgeir A. Ruden,            University of Oslo,        Norway      (Numerical derivatives in ABACUS)
  Kenneth Ruud,                UiT The Arctic U. of NorwayNorway      (DALTON; ABACUS magnetic properties and much more)
  Pawel Salek,                 KTH Stockholm,             Sweden      (DALTON; DFT code)
  Claire C. M. Samson,         University of Karlsruhe    Germany     (Boys localization, r12 integrals in ERI)
  Alfredo Sanchez de Meras,    University of Valencia,    Spain       (CC module, Cholesky decomposition)
  Trond Saue,                  Paul Sabatier University,  France      (direct Fock matrix construction)
  Stephan P. A. Sauer,         University of Copenhagen,  Denmark     (SOPPA(CCSD), SOPPA prop., AOSOPPA, vibrational g-factors)
  Bernd Schimmelpfennig,       Forschungszentrum KarlsruheGermany     (AMFI module)
  Anna K. Schnack-Petersen,    University of Copenhagen,  Denmark     (RPA(D) and HRPA(D) properties in AOSOPPA)
  Kristian Sneskov,            Aarhus University,         Denmark     (Polarizable embedding, QM/MM)
  Arnfinn H. Steindal,         UiT The Arctic U. of NorwayNorway      (parallel QM/MM, polarizable embedding)
  Casper Steinmann,            Aalborg University,        Denmark     (QFIT, polarizable embedding)
  K. O. Sylvester-Hvid,        University of Copenhagen,  Denmark     (MC-SCRF)
  Peter R. Taylor,             VLSCI/Univ. of Melbourne,  Australia   (Symmetry handling ABACUS, integral transformation)
  Andrew M. Teale,             University of Nottingham,  England     (DFT-AC, DFT-D)
  David P. Tew,                University of Bristol,     England     (CCSD(R12))
  Julien Toulouse,             Sorbonne Univ.,            France      (MC-srDFT)
  Olav Vahtras,                KTH Stockholm,             Sweden      (Triplet response, spin-orbit, ESR, TDDFT, open-shell DFT)
  Lucas Visscher,              Vrije Universiteit AmsterdaNetherlands (Frozen density embedding)
  David J. Wilson,             La Trobe University,       Australia   (DFT Hessian and DFT magnetizabilities)
  Luna Zamok,                  University of Copenhagen,  Denmark     (Block Lanczos RPA solver in SOPPA module)
  Hans Agren,                  KTH Stockholm,             Sweden      (SIRIUS module, RESPONS, MC-SCRF solvation)
 --------------------------------------------------------------------------------

     Date and time (Linux)  : Wed Feb 19 13:58:16 2025
     Host name              : s43n06.grendel.cscaa.dk                 

 * Work memory size             :  3932160000 = 29.297 gigabytes.

 * Directories for basis set searches:
   1) /home/jmikk/projects/bc_calibration_cc
   2) /home/jmikk/programs/dalton-oslo/build64/basis


Compilation information
-----------------------

 Who compiled             | jmikk
 Host                     | grendel
 System                   | Linux-4.18.0-513.18.1.el8_9.x86_64
 CMake generator          | Unix Makefiles
 Processor                | x86_64
 64-bit integers          | ON
 MPI                      | OFF
 Fortran compiler         | /comm/swstack/core/gcc/11.2.0/bin/gfortran
 Fortran compiler version | GNU Fortran (GCC) 11.2.0
 C compiler               | /comm/swstack/core/gcc/11.2.0/bin/gcc
 C compiler version       | gcc (GCC) 11.2.0
 C++ compiler             | /comm/swstack/core/gcc/11.2.0/bin/g++
 C++ compiler version     | g++ (GCC) 11.2.0
 Static linking           | OFF
 Last Git revision        | 082d2ff11a6851740f25fd48efdf99ad0c6d6e99
 Git branch               | crk-oslo
 Configuration time       | 2025-02-19 13:50:04.814968

 * Sequential calculation.


   Content of the .dal input file
 ----------------------------------

**DALTON INPUT
.RUN WAVE FUNCTIONS
**INTEGRALS
.DIPLEN
**WAVE FUNCTIONS
.CC
*CC INPUT
.CC3
*CCLR
.ATMMOM
 0
**END OF DALTON INPUT


   Content of the .mol file
 ----------------------------

BASIS
aug-pcseg-1
Chloromethane (CH3Cl)
Property calculated with xxx/aug-pcseg-1. Geo opt with wB97x/pcseg-1.
Atomtypes=3 NoSymmetry Angstrom
Charge=6.0 Atoms=1
C   0.000002   -1.130487   -0.000000
Charge=17.0 Atoms=1
Cl  0.000002    0.659682    0.000000
Charge=1.0 Atoms=3
H1  1.034778   -1.477236   -0.000000
H2 -0.517407   -1.477221    0.896136
H3 -0.517407   -1.477221   -0.896136


       *******************************************************************
       *********** Output from DALTON general input processing ***********
       *******************************************************************

 --------------------------------------------------------------------------------
   Overall default print level:    0
   Print level for DALTON.STAT:    1

    HERMIT 1- and 2-electron integral sections will be executed
    "Old" integral transformation used (limited to max 255 basis functions)
    Wave function sections will be executed (SIRIUS module)
 --------------------------------------------------------------------------------


   ****************************************************************************
   *************** Output of molecule and basis set information ***************
   ****************************************************************************


    The two title cards from your ".mol" input:
    --------------------------------------------------------------------------------
 1: Chloromethane (CH3Cl)
 2: Property calculated with xxx/aug-pcseg-1. Geo opt with wB97x/pcseg-1.
    --------------------------------------------------------------------------------

  Coordinates are entered in Angstrom and converted to atomic units.
          - Conversion factor : 1 bohr = 0.52917721 A

  Atomic type no.    1
  --------------------
  Nuclear charge:   6.00000
  Number of symmetry independent centers:    1
  Number of basis sets to read;    2
  Basis set file used for this atomic type with Z =   6 :
     "/home/jmikk/programs/dalton-oslo/build64/basis/aug-pcseg-1"

  Info about the basis set file: your basis has no documentation.
  Basis set: aug-pcseg-1                                                                     

  Atomic type no.    2
  --------------------
  Nuclear charge:  17.00000
  Number of symmetry independent centers:    1
  Number of basis sets to read;    2
  Basis set file used for this atomic type with Z =  17 :
     "/home/jmikk/programs/dalton-oslo/build64/basis/aug-pcseg-1"

  Info about the basis set file: your basis has no documentation.
  Basis set: aug-pcseg-1                                                                     

  Atomic type no.    3
  --------------------
  Nuclear charge:   1.00000
  Number of symmetry independent centers:    3
  Number of basis sets to read;    2
  Basis set file used for this atomic type with Z =   1 :
     "/home/jmikk/programs/dalton-oslo/build64/basis/aug-pcseg-1"

  Info about the basis set file: your basis has no documentation.
  Basis set: aug-pcseg-1                                                                     


                         SYMGRP: Point group information
                         -------------------------------

@    Point group: C1 


                                 Isotopic Masses
                                 ---------------

                           C          12.000000
                           Cl         34.968853
                           H1          1.007825
                           H2          1.007825
                           H3          1.007825

                       Total mass:    49.992328 amu
                       Natural abundance:  74.903 %

 Center-of-mass coordinates (a.u.):    0.000002    0.190367    0.000000
 Center-of-mass coordinates (Angs):    0.000001    0.100738    0.000000


  Atoms and basis sets
  --------------------

  Number of atom types :    3
  Total number of atoms:    5

  Basis set used is "aug-pcseg-1" from the basis set library.

  label    atoms   charge   prim   cont     basis
  ----------------------------------------------------------------------
  C           1    6.0000    34    23      [9s5p2d|4s3p2d]                                    
  Cl          1   17.0000    53    27      [13s10p2d|5s4p2d]                                  
  H3          3    1.0000    11     9      [5s2p|3s2p]                                        
  ----------------------------------------------------------------------
  total:      5   26.0000   120    77
  ----------------------------------------------------------------------
  Spherical harmonic basis used.

  Threshold for neglecting AO integrals:  1.00D-12


  Cartesian Coordinates (a.u.)
  ----------------------------

  Total number of coordinates:   15
  C       :     1  x   0.0000037795    2  y  -2.1363108179    3  z  -0.0000000000
  Cl      :     4  x   0.0000037795    5  y   1.2466183096    6  z   0.0000000000
  H1      :     7  x   1.9554470202    8  y  -2.7915714620    9  z  -0.0000000000
  H2      :    10  x  -0.9777575252   11  y  -2.7915431161   12  z   1.6934516107
  H3      :    13  x  -0.9777575252   14  y  -2.7915431161   15  z  -1.6934516107


   Interatomic separations (in Angstrom):
   --------------------------------------

            C           Cl          H1          H2          H3    
            ------      ------      ------      ------      ------
 C     :    0.000000
 Cl    :    1.790169    0.000000
 H1    :    1.091328    2.374275    0.000000
 H2    :    1.091328    2.374263    1.792300    0.000000
 H3    :    1.091328    2.374263    1.792300    1.792272    0.000000


  Max    interatomic separation is    2.3743 Angstrom (    4.4867 Bohr)
  between atoms    3 and    2, "H1    " and "Cl    ".

  Min HX interatomic separation is    1.0913 Angstrom (    2.0623 Bohr)

  Min YX interatomic separation is    1.7902 Angstrom (    3.3829 Bohr)


  Bond distances (Angstrom):
  --------------------------

                  atom 1     atom 2       distance
                  ------     ------       --------
  bond distance:  Cl         C            1.790169
  bond distance:  H1         C            1.091328
  bond distance:  H2         C            1.091328
  bond distance:  H3         C            1.091328


  Bond angles (degrees):
  ----------------------

                  atom 1     atom 2     atom 3         angle
                  ------     ------     ------         -----
  bond angle:     Cl         C          H1           108.526
  bond angle:     Cl         C          H2           108.525
  bond angle:     Cl         C          H3           108.525
  bond angle:     H1         C          H2           110.401
  bond angle:     H1         C          H3           110.401
  bond angle:     H2         C          H3           110.399




 Principal moments of inertia (u*A**2) and principal axes
 --------------------------------------------------------

   IA       3.237441          0.000001    1.000000    0.000000
   IB      38.262943          1.000000   -0.000001    0.000000
   IC      38.263010          0.000000    0.000000    1.000000


 Rotational constants
 --------------------

               A                   B                   C

         156104.4556          13208.0535          13208.0306 MHz
            5.207084            0.440573            0.440572 cm-1


@  Nuclear repulsion energy :   51.132107769835 Hartree


                     .---------------------------------------.
                     | Starting in Integral Section (HERMIT) |
                     `---------------------------------------'



 ***************************************************************************************
 ****************** Output from **INTEGRALS input processing (HERMIT) ******************
 ***************************************************************************************



    *************************************************************************
    ****************** Output from HERMIT input processing ******************
    *************************************************************************


 Default print level:        1

 Calculation of one- and two-electron Hamiltonian integrals.

 The following one-electron property integrals are calculated as requested:
          - overlap integrals
          - dipole length integrals

 Center of mass  (bohr):      0.000002179416      0.190367074126      0.000000000000
 Operator center (bohr):      0.000000000000      0.000000000000      0.000000000000
 Gauge origin    (bohr):      0.000000000000      0.000000000000      0.000000000000
 Dipole origin   (bohr):      0.000000000000      0.000000000000      0.000000000000

Calculation of 2-electron integrals are postponed until they are needed.


     ************************************************************************
     ************************** Output from HERINT **************************
     ************************************************************************



                      Nuclear contribution to dipole moments
                      --------------------------------------

                 au               Debye          C m (/(10**-30)

      x      0.00001890         0.00004803         0.00016022
      y     -0.00001134        -0.00002882        -0.00009613
      z      0.00000000         0.00000000         0.00000000


  Total CPU  time used in HERMIT:   0.04 seconds
  Total wall time used in HERMIT:   0.04 seconds


                        .----------------------------------.
                        | End of Integral Section (HERMIT) |
                        `----------------------------------'



                   .--------------------------------------------.
                   | Starting in Wave Function Section (SIRIUS) |
                   `--------------------------------------------'

 ntot                   25                    5                    5

 *** Output from Huckel module :

     Using EWMO model:          T
     Using EHT  model:          F
     Number of Huckel orbitals each symmetry:   22

 EWMO - Energy Weighted Maximum Overlap - is a Huckel type method,
        which normally is better than Extended Huckel Theory.
 Reference: Linderberg and Ohrn, Propagators in Quantum Chemistry (Wiley, 1973)

 Huckel EWMO eigenvalues for symmetry :  1
         -104.883990     -11.349229     -10.610602      -8.072686      -8.072241
           -8.072241      -1.491468      -1.041271      -0.717320      -0.717313
           -0.557551      -0.456351      -0.456349      -0.221551      -0.126389
           -0.120500      -0.120498      -0.055455      -0.055455      -0.051975
           -0.051975      -0.046571

 **********************************************************************
 *SIRIUS* a direct, restricted step, second order MCSCF program       *
 **********************************************************************

 
     Date and time (Linux)  : Wed Feb 19 13:58:17 2025
     Host name              : s43n06.grendel.cscaa.dk                 

 Title lines from ".mol" input file:
     Chloromethane (CH3Cl)
     Property calculated with xxx/aug-pcseg-1. Geo opt with wB97x/pcseg-1.

 Print level on unit LUPRI =   2 is   0
 Print level on unit LUW4  =   2 is   5

@    (Integral direct) CC calculation.

@    This is a combination run starting with
@              a restricted, closed shell Hartree-Fock calculation


 Initial molecular orbitals are obtained according to
 ".MOSTART EWMO  " input option

     Wave function specification
     ============================

     For the specification of the Coupled Cluster: see below.

@    Wave function type        --- CC ---
@    Number of closed shell electrons          26
@    Number of electrons in active shells       0
@    Total charge of the molecule               0

@    Spin multiplicity and 2 M_S                1         0
@    Total number of symmetries                 1 (point group: C1 )
@    Reference state symmetry                   1 (irrep name : A  )

     Orbital specifications
     ======================
@    Abelian symmetry species          All |    1
@                                          |  A  
                                       --- |  ---
@    Occupied SCF orbitals              13 |   13
@    Secondary orbitals                 64 |   64
@    Total number of orbitals           77 |   77
@    Number of basis functions          77 |   77

     Optimization information
     ========================
@    Number of configurations                 1
@    Number of orbital rotations            832
     ------------------------------------------
@    Total number of variables              833

     Maximum number of Fock   iterations      0
     Maximum number of DIIS   iterations     60
     Maximum number of QC-SCF iterations     60
     Threshold for SCF convergence     1.00D-06


 Changes of defaults for CC:
 ---------------------------


 -Iterative triple excitations included 
 -Linear response properties calculated
 -Dipole moment calculated
  


 ***********************************************
 ***** DIIS acceleration of SCF iterations *****
 ***********************************************

 C1-DIIS algorithm; max error vectors =    8

 Iter      Total energy        Error norm    Delta(E)  DIIS dim.
 -----------------------------------------------------------------------------

Calculating AOSUPINT

---> (Re)generating AOTWOINT


     ************************************************************************
     ************************** Output from HERINT **************************
     ************************************************************************


 Threshold for neglecting two-electron integrals:  1.00D-12
 HERMIT - Number of two-electron integrals written:     3506819 ( 77.7% )
 HERMIT - Megabytes written:                             40.239

  Total CPU  time used in TWOINT:   0.40 seconds
  Total wall time used in TWOINT:   0.40 seconds
  Time used in TWOINT     is       0.40 seconds
  CPU  time used in MAKE_AOTWOINT is   0.40 seconds
  WALL time used in MAKE_AOTWOINT is   0.40 seconds
     (Precalculated AO two-electron integrals are transformed to P-supermatrix elements.
      Threshold for discarding integrals :  1.00D-12 )

  CPU  time used in FORMSUP    is   0.18 seconds
  WALL time used in FORMSUP    is   0.18 seconds
@  1    -498.798944790        1.86762D+00   -4.99D+02    1
      Virial theorem: -V/T =      2.000652
@    MULPOP   C      -0.01; Cl     -0.20; H1      0.07; H2      0.07; H3      0.07; 
   1  Level shift: doubly occupied orbital energies shifted by -2.00D-01
 -----------------------------------------------------------------------------
@  2    -499.036846008        6.84602D-01   -2.38D-01    2
      Virial theorem: -V/T =      1.998583
@    MULPOP   C      -0.75; Cl     -0.19; H1      0.31; H2      0.31; H3      0.31; 
   2  Level shift: doubly occupied orbital energies shifted by -1.00D-01
 -----------------------------------------------------------------------------
@  3    -499.068957427        1.32742D-01   -3.21D-02    3
      Virial theorem: -V/T =      1.998981
@    MULPOP   C      -0.71; Cl     -0.32; H1      0.34; H2      0.34; H3      0.34; 
   3  Level shift: doubly occupied orbital energies shifted by -2.50D-02
 -----------------------------------------------------------------------------
@  4    -499.071741596        3.58830D-02   -2.78D-03    4
      Virial theorem: -V/T =      1.999111
@    MULPOP   C      -0.71; Cl     -0.37; H1      0.36; H2      0.36; H3      0.36; 
   4  Level shift: doubly occupied orbital energies shifted by -1.25D-02
 -----------------------------------------------------------------------------
@  5    -499.071966450        9.69051D-03   -2.25D-04    5
      Virial theorem: -V/T =      1.999018
@    MULPOP   C      -0.70; Cl     -0.39; H1      0.36; H2      0.36; H3      0.36; 
 -----------------------------------------------------------------------------
@  6    -499.071983029        2.72720D-03   -1.66D-05    6
      Virial theorem: -V/T =      1.999046
@    MULPOP   C      -0.70; Cl     -0.39; H1      0.36; H2      0.36; H3      0.36; 
 -----------------------------------------------------------------------------
@  7    -499.071984695        6.56256D-04   -1.67D-06    7
      Virial theorem: -V/T =      1.999042
@    MULPOP   C      -0.70; Cl     -0.40; H1      0.36; H2      0.36; H3      0.36; 
 -----------------------------------------------------------------------------
@  8    -499.071984786        9.54145D-05   -9.16D-08    8
      Virial theorem: -V/T =      1.999043
@    MULPOP   C      -0.70; Cl     -0.40; H1      0.37; H2      0.37; H3      0.37; 
 -----------------------------------------------------------------------------
@  9    -499.071984788        1.44078D-05   -1.73D-09    8
      Virial theorem: -V/T =      1.999043
@    MULPOP   C      -0.70; Cl     -0.40; H1      0.37; H2      0.37; H3      0.37; 
 -----------------------------------------------------------------------------
@ 10    -499.071984788        2.55945D-06   -3.75D-11    8
      Virial theorem: -V/T =      1.999043
@    MULPOP   C      -0.70; Cl     -0.40; H1      0.37; H2      0.37; H3      0.37; 
 -----------------------------------------------------------------------------
@ 11    -499.071984788        4.69003D-07    3.41D-13    8

@ *** DIIS converged in  11 iterations !
@     Converged SCF energy, gradient:   -499.071984787952    4.69D-07
    - total time used in SIRFCK :              0.00 seconds


 *** SCF orbital energy analysis ***

 Only the 20 lowest virtual orbital energies printed in each symmetry.

 Number of electrons        :   26
 Closed shell orbitals      :   13

 Sym       Hartree-Fock orbital energies

1 A    -104.78991509   -11.29021598   -10.53186674    -8.01162467    -8.00830218
         -8.00830217    -1.12552938    -0.91467551    -0.61873902    -0.61873352
         -0.54701100    -0.43695935    -0.43695820     0.02944657     0.04819127
          0.04819189     0.06284617     0.10497018     0.11744243     0.11744387
          0.12991312     0.12991355     0.14306395     0.19371511     0.19371558
          0.20147314     0.24324356     0.24324486     0.25706840     0.28491610
          0.29901151     0.29901324     0.31331231

    E(LUMO) :     0.02944657 au (symmetry 1)
  - E(HOMO) :    -0.43695820 au (symmetry 1)
  ------------------------------------------
    gap     :     0.46640477 au

 --- Writing SIRIFC interface file

--------------------------------------------------------------------------------


     .--------------------------------------------------.
     | HF-SCF KT IPs [a.u. & eV] from Koopmans' theorem |
     `--------------------------------------------------'


     HF-SCF KT symmetry 1 ( A  ) in point group C1  -- 13 principal poles with pole strength 1

   ============  ============  ============  ============  ============
     104.789915     11.290216     10.531867      8.011625      8.008302
    2851.478641    307.222405    286.586672    218.007397    217.916988
   ============  ============  ============  ============  ============

   ============  ============  ============  ============  ============
       8.008302      1.125529      0.914676      0.618739      0.618734
     217.916987     30.627212     24.889587     16.836745     16.836595
   ============  ============  ============  ============  ============

   ============  ============  ============
       0.547011      0.436959      0.436958
      14.884927     11.890269     11.890238
   ============  ============  ============

@ Summary of HF-SCF KT ionization potentials [eV]:

@ Symmetry 1 (A  ) :  2851.479     307.222     286.587     218.007     217.917
@                      217.917      30.627      24.890      16.837      16.837
@                       14.885      11.890      11.890

  === End of HF-SCF KT output ===
--------------------------------------------------------------------------------


 CPU and wall time for SCF :       0.901       0.907


                       .-----------------------------------.
                       | --- Final results from SIRIUS --- |
                       `-----------------------------------'


@    Spin multiplicity:           1
@    Spatial symmetry:            1 ( irrep  A   in C1  )
@    Total charge of molecule:    0

@    Final HF energy:            -499.071984787952                 
@    Nuclear repulsion:            51.132107769835
@    Electronic energy:          -550.204092557787

@    Final gradient norm:           0.000000469003

 
     Date and time (Linux)  : Wed Feb 19 13:58:18 2025
     Host name              : s43n06.grendel.cscaa.dk                 

File label for MO orbitals:  19Feb25   FOCKDIIS

 (Only coefficients > 0.0100 are printed.)

 Molecular orbitals for symmetry species 1  (A  )
 ------------------------------------------------

    Orbital         4        5        6        7        8        9       10
   1 C   :1s     0.0001  -0.0000  -0.0000  -0.1168  -0.1705   0.0000   0.0000
   2 C   :1s     0.0003  -0.0000   0.0000   0.2269   0.3387  -0.0000  -0.0000
   3 C   :1s     0.0000   0.0000   0.0000   0.1433   0.2755  -0.0000  -0.0000
   4 C   :1s     0.0014  -0.0000   0.0000   0.0369   0.0782  -0.0000  -0.0000
   5 C   :2px   -0.0000   0.0000  -0.0000  -0.0000  -0.0000  -0.4251  -0.0000
   6 C   :2py    0.0000  -0.0000  -0.0000   0.0765  -0.1020   0.0000   0.0000
   7 C   :2pz    0.0000  -0.0000  -0.0000   0.0000  -0.0000   0.0000  -0.4251
   8 C   :2px    0.0000  -0.0001   0.0000   0.0000   0.0000  -0.3168   0.0000
   9 C   :2py   -0.0002  -0.0000  -0.0000  -0.0036  -0.0329   0.0000   0.0000
  10 C   :2pz    0.0000   0.0000   0.0001  -0.0000  -0.0000  -0.0000  -0.3168
  12 C   :2py    0.0000  -0.0000  -0.0000   0.0180   0.0026  -0.0000   0.0000
  16 C   :3d0    0.0001   0.0000  -0.0000  -0.0067   0.0050   0.0177   0.0000
  17 C   :3d1+  -0.0000  -0.0000  -0.0000   0.0000   0.0000  -0.0000   0.0205
  18 C   :3d2+   0.0002  -0.0000   0.0000  -0.0116   0.0087  -0.0102  -0.0000
  19 C   :3d2-   0.0000   0.0012  -0.0000  -0.0000  -0.0000   0.0227   0.0000
  20 C   :3d1-  -0.0000  -0.0000  -0.0012  -0.0000   0.0000  -0.0000   0.0227
  21 C   :3d0    0.0000   0.0002  -0.0000   0.0043  -0.0002   0.0447  -0.0000
  22 C   :3d1+  -0.0000  -0.0000  -0.0002  -0.0000   0.0000   0.0000   0.0516
  23 C   :3d2+   0.0001  -0.0001   0.0000   0.0075  -0.0003  -0.0258   0.0000
  24 Cl  :1s    -0.0016  -0.0000   0.0000   0.0705  -0.0466   0.0000  -0.0000
  25 Cl  :1s     0.0057   0.0000  -0.0000  -0.4466   0.2993  -0.0000   0.0000
  26 Cl  :1s    -0.0012  -0.0000  -0.0000   0.5862  -0.4122   0.0000  -0.0000
  27 Cl  :1s     0.0009   0.0000   0.0000   0.3622  -0.2606   0.0000  -0.0000
  29 Cl  :2px   -0.0000  -0.9974   0.0001   0.0000   0.0000   0.0902   0.0000
  30 Cl  :2py    0.9967  -0.0000  -0.0000   0.0438   0.0468  -0.0000  -0.0000
  31 Cl  :2pz    0.0000   0.0001   0.9974   0.0000   0.0000  -0.0000   0.0902
  32 Cl  :2px   -0.0000  -0.0077   0.0000  -0.0000  -0.0000  -0.2316  -0.0000
  33 Cl  :2py    0.0096  -0.0000  -0.0000  -0.1013  -0.1138   0.0000   0.0000
  34 Cl  :2pz    0.0000   0.0000   0.0077   0.0000   0.0000   0.0000  -0.2316
  35 Cl  :2px   -0.0000  -0.0012   0.0000  -0.0000  -0.0000  -0.0872   0.0000
  36 Cl  :2py   -0.0004  -0.0000  -0.0000  -0.0558  -0.0291   0.0000   0.0000
  37 Cl  :2pz    0.0000   0.0000   0.0012  -0.0000  -0.0000  -0.0000  -0.0872
  41 Cl  :3d2-   0.0000   0.0003  -0.0000   0.0000   0.0000   0.0251   0.0000
  42 Cl  :3d1-  -0.0000  -0.0000  -0.0003  -0.0000   0.0000  -0.0000   0.0251
  43 Cl  :3d0    0.0002   0.0000  -0.0000  -0.0153  -0.0088   0.0013   0.0000
  45 Cl  :3d2+   0.0003  -0.0000   0.0000  -0.0265  -0.0152  -0.0007  -0.0000
  50 Cl  :3d2+   0.0002   0.0000  -0.0000  -0.0141  -0.0096   0.0012  -0.0000
  51 H1  :1s    -0.0001  -0.0001   0.0000   0.0797   0.1842  -0.3436  -0.0000
  52 H1  :1s    -0.0000   0.0022  -0.0000  -0.0329  -0.0189   0.1728  -0.0000
  53 H1  :1s     0.0000  -0.0002   0.0000  -0.0038  -0.0090   0.0324   0.0000
  54 H1  :2px    0.0001  -0.0000   0.0000  -0.0089  -0.0171   0.0153   0.0000
  57 H1  :2px   -0.0001  -0.0007   0.0000   0.0064   0.0021  -0.0582   0.0000
  58 H1  :2py    0.0002  -0.0003   0.0000  -0.0157  -0.0032   0.0250  -0.0000
  59 H1  :2pz    0.0000   0.0000   0.0001   0.0000  -0.0000  -0.0000  -0.0219
  60 H2  :1s    -0.0001   0.0000   0.0001   0.0797   0.1842   0.1718  -0.2975
  61 H2  :1s    -0.0000  -0.0011  -0.0019  -0.0329  -0.0189  -0.0864   0.1496
  62 H2  :1s     0.0000   0.0001   0.0002  -0.0038  -0.0090  -0.0162   0.0281
  63 H2  :2px   -0.0000  -0.0000  -0.0000   0.0044   0.0085  -0.0021  -0.0100
  65 H2  :2pz    0.0001   0.0000   0.0000  -0.0077  -0.0148  -0.0100   0.0095
  66 H2  :2px    0.0000  -0.0002  -0.0003  -0.0032  -0.0011  -0.0310   0.0157
  67 H2  :2py    0.0002   0.0002   0.0003  -0.0157  -0.0032  -0.0125   0.0216
  68 H2  :2pz   -0.0001   0.0003   0.0005   0.0056   0.0018   0.0157  -0.0491
  69 H3  :1s    -0.0001   0.0000  -0.0001   0.0797   0.1842   0.1718   0.2975
  70 H3  :1s    -0.0000  -0.0011   0.0019  -0.0329  -0.0189  -0.0864  -0.1496
  71 H3  :1s     0.0000   0.0001  -0.0002  -0.0038  -0.0090  -0.0162  -0.0281
  72 H3  :2px   -0.0000  -0.0000   0.0000   0.0044   0.0085  -0.0021   0.0100
  74 H3  :2pz   -0.0001  -0.0000   0.0000   0.0077   0.0148   0.0100   0.0095
  75 H3  :2px    0.0000  -0.0002   0.0003  -0.0032  -0.0011  -0.0310  -0.0157
  76 H3  :2py    0.0002   0.0002  -0.0003  -0.0157  -0.0032  -0.0125  -0.0216
  77 H3  :2pz    0.0001  -0.0003   0.0005  -0.0056  -0.0018  -0.0157  -0.0491

    Orbital        11       12       13       14       15       16       17
   1 C   :1s     0.0019  -0.0000  -0.0000   0.0361  -0.0000  -0.0000   0.0176
   2 C   :1s    -0.0027   0.0000  -0.0000  -0.0523   0.0000   0.0000  -0.0143
   3 C   :1s    -0.0273   0.0000   0.0000  -0.5572   0.0000   0.0000  -0.2771
   4 C   :1s     0.0840  -0.0000   0.0000  -3.3389  -0.0000   0.0000  -3.2584
   5 C   :2px   -0.0000   0.1555  -0.0000   0.0000   0.0532   0.0000  -0.0000
   6 C   :2py   -0.3453  -0.0000  -0.0000   0.0176  -0.0000  -0.0000  -0.0453
   7 C   :2pz   -0.0000  -0.0000  -0.1555   0.0000  -0.0000   0.0532   0.0000
   8 C   :2px   -0.0000   0.0669   0.0000  -0.0000   0.3544   0.0000  -0.0000
   9 C   :2py   -0.2341   0.0000   0.0000   0.1482   0.0000  -0.0000  -0.6541
  10 C   :2pz   -0.0000   0.0000  -0.0669  -0.0000  -0.0000   0.3545   0.0000
  11 C   :2px   -0.0000   0.0514  -0.0000   0.0000   2.3091   0.0000   0.0000
  12 C   :2py   -0.0465  -0.0000   0.0000  -0.1491  -0.0000  -0.0000  -1.9714
  13 C   :2pz    0.0000  -0.0000  -0.0514  -0.0000  -0.0000   2.3090   0.0000
  14 C   :3d2-  -0.0000  -0.0207  -0.0000   0.0000   0.0006   0.0000   0.0000
  15 C   :3d1-   0.0000  -0.0000   0.0207  -0.0000  -0.0000   0.0006  -0.0000
  16 C   :3d0    0.0150  -0.0085  -0.0000  -0.0013  -0.0029  -0.0000  -0.0016
  18 C   :3d2+   0.0260   0.0049   0.0000  -0.0023   0.0017   0.0000  -0.0028
  19 C   :3d2-   0.0000  -0.0088   0.0000   0.0000  -0.0881  -0.0000  -0.0000
  20 C   :3d1-   0.0000   0.0000   0.0088  -0.0000   0.0000  -0.0881  -0.0000
  21 C   :3d0    0.0156   0.0181  -0.0000  -0.0395   0.0219   0.0000   0.1228
  22 C   :3d1+   0.0000  -0.0000  -0.0210  -0.0000  -0.0000   0.0253  -0.0000
  23 C   :3d2+   0.0271  -0.0105   0.0000  -0.0685  -0.0126  -0.0000   0.2128
  24 Cl  :1s     0.0148   0.0000  -0.0000  -0.0014  -0.0000   0.0000   0.0123
  25 Cl  :1s    -0.0974  -0.0000   0.0000   0.0096   0.0000  -0.0000  -0.0828
  26 Cl  :1s     0.1336   0.0000   0.0000  -0.0163   0.0000   0.0000   0.1250
  27 Cl  :1s     0.1962  -0.0000  -0.0000  -0.0392  -0.0000   0.0000   0.2150
  28 Cl  :1s    -0.0137   0.0000  -0.0000   0.1350   0.0000   0.0000   4.4385
  29 Cl  :2px    0.0000   0.2779   0.0000  -0.0000  -0.0101  -0.0000  -0.0000
  30 Cl  :2py   -0.2320   0.0000  -0.0000   0.0220  -0.0000   0.0000   0.0112
  31 Cl  :2pz    0.0000   0.0000  -0.2779   0.0000   0.0000  -0.0101  -0.0000
  32 Cl  :2px   -0.0000  -0.7362  -0.0000   0.0000   0.0268   0.0000   0.0000
  33 Cl  :2py    0.5953  -0.0000   0.0000  -0.0612   0.0000  -0.0000  -0.0213
  34 Cl  :2pz   -0.0000  -0.0000   0.7362   0.0000  -0.0000   0.0268   0.0000
  35 Cl  :2px   -0.0000  -0.3890  -0.0000  -0.0000   0.0446   0.0000   0.0000
  36 Cl  :2py    0.2129  -0.0000   0.0000   0.0239   0.0000  -0.0000  -0.6880
  37 Cl  :2pz   -0.0000  -0.0000   0.3890   0.0000  -0.0000   0.0446  -0.0000
  38 Cl  :2px    0.0000  -0.0208   0.0000  -0.0000  -0.1366  -0.0000  -0.0000
  39 Cl  :2py    0.0281  -0.0000   0.0000  -0.0899   0.0000  -0.0000  -1.6039
  40 Cl  :2pz   -0.0000   0.0000   0.0208   0.0000   0.0000  -0.1366  -0.0000
  43 Cl  :3d0    0.0303  -0.0014  -0.0000   0.0051   0.0029   0.0000   0.0014
  45 Cl  :3d2+   0.0524   0.0008   0.0000   0.0088  -0.0017  -0.0000   0.0025
  46 Cl  :3d2-   0.0000   0.0199  -0.0000  -0.0000  -0.0150   0.0000   0.0000
  47 Cl  :3d1-   0.0000  -0.0000  -0.0199  -0.0000  -0.0000  -0.0150   0.0000
  48 Cl  :3d0    0.0156  -0.0027   0.0000   0.0272  -0.0169  -0.0000  -0.1204
  49 Cl  :3d1+  -0.0000   0.0000   0.0031   0.0000   0.0000  -0.0195   0.0000
  50 Cl  :3d2+   0.0270   0.0016  -0.0000   0.0472   0.0097   0.0000  -0.2086
  51 H1  :1s     0.1032   0.1703   0.0000  -0.0094   0.0132   0.0000  -0.0051
  52 H1  :1s     0.0150   0.1671  -0.0000   0.4801  -0.6760  -0.0000  -0.1797
  53 H1  :1s    -0.0081  -0.0355   0.0000   1.0921  -6.3718  -0.0000  -0.2741
  57 H1  :2px   -0.0106  -0.0310   0.0000  -0.1149   0.3243   0.0000   0.0893
  58 H1  :2py    0.0279   0.0239  -0.0000   0.1090  -0.0738  -0.0000  -0.1253
  59 H1  :2pz   -0.0000   0.0000   0.0251   0.0000   0.0000  -0.1779   0.0000
  60 H2  :1s     0.1032  -0.0851  -0.1475  -0.0094  -0.0066   0.0114  -0.0051
  61 H2  :1s     0.0150  -0.0836  -0.1447   0.4801   0.3380  -0.5855  -0.1797
  62 H2  :1s    -0.0081   0.0178   0.0308   1.0921   3.1859  -5.5182  -0.2740
  66 H2  :2px    0.0053  -0.0265  -0.0026   0.0574  -0.0524  -0.2175  -0.0446
  67 H2  :2py    0.0279  -0.0120  -0.0207   0.1090   0.0369  -0.0639  -0.1253
  68 H2  :2pz   -0.0092   0.0026   0.0295  -0.0995  -0.2175   0.1987   0.0773
  69 H3  :1s     0.1032  -0.0851   0.1475  -0.0094  -0.0066  -0.0114  -0.0051
  70 H3  :1s     0.0150  -0.0836   0.1447   0.4801   0.3380   0.5855  -0.1797
  71 H3  :1s    -0.0081   0.0178  -0.0308   1.0921   3.1859   5.5182  -0.2740
  75 H3  :2px    0.0053  -0.0265   0.0026   0.0574  -0.0524   0.2175  -0.0446
  76 H3  :2py    0.0279  -0.0120   0.0207   0.1090   0.0369   0.0639  -0.1253
  77 H3  :2pz    0.0092  -0.0026   0.0295   0.0995   0.2175   0.1987  -0.0773

    Orbital        18       19       20       21       22       23
   1 C   :1s     0.0186   0.0000   0.0000   0.0000   0.0000   0.0720
   2 C   :1s    -0.0411   0.0000  -0.0000  -0.0000   0.0000  -0.2665
   3 C   :1s    -0.2115  -0.0000  -0.0000   0.0000  -0.0000   0.5925
   4 C   :1s    -3.4378  -0.0000   0.0002  -0.0000   0.0000   8.6771
   5 C   :2px   -0.0000  -0.0000   0.0491   0.0000   0.0290  -0.0000
   6 C   :2py   -0.0568  -0.0000   0.0000  -0.0000   0.0000  -0.0350
   7 C   :2pz   -0.0000   0.0491   0.0000  -0.0290   0.0000   0.0000
   8 C   :2px    0.0000  -0.0000   0.1215   0.0000  -0.2170   0.0000
   9 C   :2py   -0.1681  -0.0000  -0.0000  -0.0000   0.0000  -0.3099
  10 C   :2pz   -0.0000   0.1215   0.0000   0.2170  -0.0000  -0.0000
  11 C   :2px   -0.0000   0.0000  -6.5629   0.0000  -1.8391   0.0000
  12 C   :2py    1.7640  -0.0000   0.0001  -0.0000   0.0000   0.0704
  13 C   :2pz    0.0000  -6.5628  -0.0000   1.8385   0.0000  -0.0000
  19 C   :3d2-  -0.0000   0.0000  -0.1511  -0.0000   0.1324   0.0000
  20 C   :3d1-   0.0000  -0.1510  -0.0000  -0.1324  -0.0000  -0.0000
  21 C   :3d0    0.1287   0.0000  -0.2094   0.0000   0.1083   0.0593
  22 C   :3d1+   0.0000  -0.2418  -0.0000  -0.1251   0.0000  -0.0000
  23 C   :3d2+   0.2230  -0.0000   0.1209  -0.0000  -0.0626   0.1028
  26 Cl  :1s    -0.0268   0.0000  -0.0000  -0.0000  -0.0000  -0.0036
  27 Cl  :1s     0.1835  -0.0000   0.0000   0.0000   0.0000   0.1778
  28 Cl  :1s     1.6528   0.0000  -0.0001   0.0000  -0.0000  -1.6840
  29 Cl  :2px   -0.0000  -0.0000   0.0099  -0.0000  -0.0506  -0.0000
  30 Cl  :2py   -0.0139   0.0000   0.0000  -0.0000   0.0000   0.0585
  31 Cl  :2pz    0.0000   0.0099   0.0000   0.0506  -0.0000   0.0000
  32 Cl  :2px    0.0000   0.0000  -0.0313  -0.0000   0.1228   0.0000
  33 Cl  :2py    0.0520  -0.0000  -0.0000   0.0000   0.0000  -0.1606
  34 Cl  :2pz   -0.0000  -0.0313  -0.0000  -0.1228   0.0000   0.0000
  35 Cl  :2px    0.0000  -0.0000   0.0890   0.0000   0.3750  -0.0000
  36 Cl  :2py   -0.4052  -0.0000  -0.0000  -0.0000  -0.0000  -0.2468
  37 Cl  :2pz   -0.0000   0.0890   0.0000  -0.3750   0.0000  -0.0000
  38 Cl  :2px    0.0000  -0.0000   2.1340  -0.0000  -1.3953  -0.0000
  39 Cl  :2py   -2.3490  -0.0000   0.0000  -0.0000   0.0000   0.8854
  40 Cl  :2pz   -0.0000   2.1339   0.0000   1.3955  -0.0000  -0.0000
  41 Cl  :3d2-   0.0000  -0.0000   0.0130  -0.0000  -0.0201   0.0000
  42 Cl  :3d1-  -0.0000   0.0130   0.0000   0.0201  -0.0000  -0.0000
  43 Cl  :3d0    0.0197   0.0000  -0.0108  -0.0000  -0.0064   0.0242
  44 Cl  :3d1+   0.0000  -0.0125  -0.0000   0.0073  -0.0000  -0.0000
  45 Cl  :3d2+   0.0341  -0.0000   0.0062   0.0000   0.0037   0.0420
  46 Cl  :3d2-  -0.0000   0.0000  -0.2014   0.0000   0.0994   0.0000
  47 Cl  :3d1-   0.0000  -0.2013  -0.0000  -0.0994   0.0000   0.0000
  48 Cl  :3d0   -0.1313   0.0000   0.0030  -0.0000  -0.0127   0.0223
  49 Cl  :3d1+  -0.0000   0.0034  -0.0000   0.0147  -0.0000   0.0000
  50 Cl  :3d2+  -0.2274  -0.0000  -0.0017   0.0000   0.0073   0.0386
  51 H1  :1s     0.0215  -0.0000   0.0580  -0.0000   0.0187   0.0105
  52 H1  :1s    -0.0257   0.0000  -1.0062   0.0000   0.6439  -1.1401
  53 H1  :1s     0.4218  -0.0000   6.6747  -0.0000   4.2326  -1.4834
  54 H1  :2px    0.0016   0.0000  -0.0015  -0.0000  -0.0042   0.0160
  57 H1  :2px    0.0351  -0.0000   1.1950  -0.0000   0.1427   0.3902
  58 H1  :2py   -0.5042   0.0000  -0.0787   0.0000   0.2126  -0.1990
  59 H1  :2pz   -0.0000   0.8099   0.0000  -0.1265  -0.0000   0.0000
  60 H2  :1s     0.0215   0.0502  -0.0290  -0.0162  -0.0094   0.0105
  61 H2  :1s    -0.0256  -0.8713   0.5030  -0.5577  -0.3220  -1.1400
  62 H2  :1s     0.4217   5.7806  -3.3373  -3.6651  -2.1163  -1.4834
  65 H2  :2pz    0.0014  -0.0024  -0.0016   0.0036   0.0009   0.0138
  66 H2  :2px   -0.0175  -0.1667   0.9062   0.0070   0.1306  -0.1951
  67 H2  :2py   -0.5042  -0.0682   0.0393  -0.1841  -0.1063  -0.1990
  68 H2  :2pz    0.0303   1.0987  -0.1668  -0.1386  -0.0070   0.3379
  69 H3  :1s     0.0215  -0.0502  -0.0290   0.0162  -0.0094   0.0105
  70 H3  :1s    -0.0256   0.8713   0.5030   0.5577  -0.3220  -1.1400
  71 H3  :1s     0.4217  -5.7806  -3.3373   3.6651  -2.1163  -1.4834
  74 H3  :2pz   -0.0014  -0.0024   0.0016   0.0036  -0.0009  -0.0138
  75 H3  :2px   -0.0175   0.1667   0.9062  -0.0070   0.1306  -0.1951
  76 H3  :2py   -0.5042   0.0682   0.0393   0.1841  -0.1063  -0.1990
  77 H3  :2pz   -0.0303   1.0987   0.1668  -0.1386   0.0070  -0.3379

  Total CPU  time used in SIRIUS :   0.94 seconds
  Total wall time used in SIRIUS :   0.95 seconds

 
     Date and time (Linux)  : Wed Feb 19 13:58:18 2025
     Host name              : s43n06.grendel.cscaa.dk                 


                     .---------------------------------------.
                     | End of Wave Function Section (SIRIUS) |
                     `---------------------------------------'



                    .------------------------------------------.
                    | Starting in Coupled Cluster Section (CC) |
                    `------------------------------------------'

  

 *******************************************************************************
 *******************************************************************************
 *                                                                             *
 *                                                                             *
 *                    START OF COUPLED CLUSTER CALCULATION                     *
 *                                                                             *
 *                                                                             *
 *******************************************************************************
 *******************************************************************************



 CCR12 ANSATZ =   0

 CCR12 APPROX =   0

   

 *******************************************************************
 *                                                                 *
 *----------                                             >---------*
 *---------- OUTPUT FROM COUPLED CLUSTER ENERGY PROGRAM  >---------*
 *----------                                             >---------*
 *                                                                 *
 *******************************************************************


             The Direct Coupled Cluster Energy Program
             -----------------------------------------


          Number of t1 amplitudes                 :       832
          Number of t2 amplitudes                 :    346528
          Total number of amplitudes in ccsd      :    347360

 Iter.  1: Coupled cluster MP2   energy :    -499.3768639651755734
 Iter.  1: Coupled cluster CC3   energy :    -499.4045407184727878
 Iter.  2: Coupled cluster CC3   energy :    -499.4135173702405837
 Iter.  3: Coupled cluster CC3   energy :    -499.4140996873437643
 Iter.  4: Coupled cluster CC3   energy :    -499.4140889959224978
 Iter.  5: Coupled cluster CC3   energy :    -499.4140873992282081
 Iter.  6: Coupled cluster CC3   energy :    -499.4140889844326807
 Iter.  7: Coupled cluster CC3   energy :    -499.4140895837350627
 Iter.  8: Coupled cluster CC3   energy :    -499.4140897835581541
 Iter.  9: Coupled cluster CC3   energy :    -499.4140897262239491
 Iter. 10: Coupled cluster CC3   energy :    -499.4140897069036669
 Iter. 11: Coupled cluster CC3   energy :    -499.4140896988245117

 CC3   energy converged to within   0.10D-07 is         -499.414089698825
 Final 2-norm of the CC vector function:  3.80005220D-07





             +-------------------------------------------------------+
             ! Final results from the Coupled Cluster energy program !
             +-------------------------------------------------------+



            Total SCF   energy:                  -499.0719847880

            Total MP2   energy:                  -499.3768639652

            Total CC3   energy:                  -499.4140896988




                   +--------------------------------------------+
                   ! Calculating singlet intermediates for CCLR !
                   +--------------------------------------------+



            E-intermediates calculated 
            Fock-intermediate calculated 
            Gamma-intermediate calculated 
            BF-intermediate calculated 
            C-intermediate calculated 
            D-intermediate calculated 


   

 *******************************************************************
 *                                                                 *
 *---- OUTPUT FROM COUPLED CLUSTER RESPONSE  -------------*
 *                                                                 *
 *******************************************************************



                         +-------------------------------+
                         ! Coupled Cluster model is: CC3 !
                         +-------------------------------+



                            +--------------------------+
                            ! CC3  Natural Occupations !
                            +--------------------------+

  
   Symmetry block number:  1
   ---------------------
  
   1.99999982   1.99992327   1.99986447   1.99986447   1.99980986
   1.99978816   1.98128352   1.97048601   1.95931478   1.95931458
   1.95251422   1.95251407   1.93846611   0.04850168   0.02468488
   0.02468440   0.02026133   0.01764357   0.01764354   0.01724601
   0.01724599   0.01329290   0.01214429   0.01214429   0.00872212
   0.00835621   0.00835616   0.00526980   0.00459691   0.00459688
   0.00373097   0.00211520   0.00146648   0.00146644   0.00134242
   0.00114980   0.00114978   0.00088582   0.00088581   0.00079366
   0.00069339   0.00069339   0.00059155   0.00059155   0.00050095
   0.00038679   0.00034863   0.00034863   0.00030038   0.00029495
   0.00029494   0.00023886   0.00018604   0.00018604   0.00012769
   0.00011591   0.00011591   0.00008281   0.00008281   0.00008212
   0.00004803   0.00003721   0.00003721   0.00002721   0.00002392
   0.00001014   0.00001014   0.00000616   0.00000616   0.00000440
   0.00000179   0.00000124   0.00000124   0.00000077   0.00000012
   0.00000011   0.00000011
  
   Sum in this symmetry class:  26.000000
  
  
   Total Sum of natural occupation numbers:  26.000000
  
   Dynamical correlation move: 0.286857 electrons
  


             +--------------------------------------------------------+
             ! Unrelaxed  CC3    First-order one-electron properties: !
             +--------------------------------------------------------+



                            +-------------------------+
                            !  Electric Dipole Moment !
                            +-------------------------+



                          Total Molecular Dipole Moment
                          -----------------------------

                 au               Debye          C m (/(10**-30)

      x     -0.00000591        -0.00001502        -0.00005010
      y     -0.76785082        -1.95168199        -6.51011038
      z      0.00000000         0.00000000         0.00000000


  CPU  time used in dftint     is   3.07 seconds
  WALL time used in dftint     is   3.56 seconds
  grid points, tot elec.
    119208       25.9999993550
  
  CPU  time used in mbis       is   5.04 seconds
  WALL time used in mbis       is   5.11 seconds
  CPU  time used in num_aoint_opt is   2.53 seconds
  WALL time used in num_aoint_opt is   2.71 seconds
     

   *******************************************************************
   *                                                                 *
   *--------   OUTPUT FROM PROPERTY AND SYMMETRY ANALYSIS   ---------*
   *                                                                 *
   *******************************************************************


     Prepare CC3 quadratic response calculation.


     Prepare CC3 cubic response calculation.



                         +-------------------------------+
                         ! REQUESTED PROPERTY OPERATORS: !
                         +-------------------------------+

             Index   Oper. Label  Symmetry  Transp.  PDBS  Atom
             --------------------------------------------------
                1     AM010600        1        1      F      0
                2     AM021700        1        1      F      0
                3     AM030100        1        1      F      0
                4     AM040100        1        1      F      0
                5     AM050100        1        1      F      0
                6     HAM0            1        1      T      0
             --------------------------------------------------




                         +-------------------------------+
                         ! REQUESTED EXPECTATION VALUES: !
                         +-------------------------------+

                       Index   Oper. Label  Symmetry
                       -----------------------------
                       -----------------------------




                       +------------------------------------+
                       ! REQUESTED EFFECTIVE FOCK MATRICES: !
                       +------------------------------------+

                       Index   Oper. Label  Symmetry
                       -----------------------------
                       -----------------------------




                       +-----------------------------------+
                       ! REQUESTED FIRST ORDER XI VECTORS: !
                       +-----------------------------------+

             Index   Oper. Label  relaxed  Sym.     Frequency
             --------------------------------------------------
                1      AM010600       F     1      0.000000D+00
                2      AM021700       F     1      0.000000D+00
                3      AM030100       F     1      0.000000D+00
                4      AM040100       F     1      0.000000D+00
                5      AM050100       F     1      0.000000D+00
             --------------------------------------------------




                        +----------------------------------+
                        ! REQUESTED FIRST ORDER T VECTORS: !
                        +----------------------------------+

             Index   Oper. Label  relaxed  Sym.     Frequency
             --------------------------------------------------
                1      AM010600       F     1      0.000000D+00
                2      AM021700       F     1      0.000000D+00
                3      AM030100       F     1      0.000000D+00
                4      AM040100       F     1      0.000000D+00
                5      AM050100       F     1      0.000000D+00
             --------------------------------------------------


      

    *******************************************************************
    *          SOLVING COUPLED CLUSTER RESPONSE EQUATIONS             *
    *******************************************************************



 
 +======================================================================+
 !                     RHS & ETA VECTORS TO COMPUTE:                    !
 +======================================================================+
 | TYPE | # VEC. |  NEEDED FOR:                                         |
 +----------------------------------------------------------------------+
 |  O1  |    5   |  first-order amplitude equations                     |
 +======================================================================+



 +======================================================================+
 !                       LINEAR EQUATIONS TO SOLVE:                     !
 +======================================================================+
 | TYPE | # VEC. |  EQUATION:                                           |
 +----------------------------------------------------------------------+
 |  R1  |    5   |  first-order amplitude response                      |
 +======================================================================+



 +======================================================================+
 !                F MATRIX TRANSFORMATIONS TO COMPUTE:                  !
 +======================================================================+
 | TYPE | # VEC. |  TRANSFORMED:                                        |
 +----------------------------------------------------------------------+
 |  F1  |    5   |  first-order amplitude response (R1) vector          |
 +======================================================================+




 -------------------------------------------------------------------
 |          OUTPUT FROM AMPLITUDE RHS VECTOR SECTION               |
 -------------------------------------------------------------------

@ WARNING: ETA1 VECTOR FOR AM010600( F, 0.00000D+00) IS NOT AVAILABLE.
@ WARNING: ETA1 VECTOR FOR AM021700( F, 0.00000D+00) IS NOT AVAILABLE.
@ WARNING: ETA1 VECTOR FOR AM030100( F, 0.00000D+00) IS NOT AVAILABLE.
@ WARNING: ETA1 VECTOR FOR AM040100( F, 0.00000D+00) IS NOT AVAILABLE.
@ WARNING: ETA1 VECTOR FOR AM050100( F, 0.00000D+00) IS NOT AVAILABLE.


   For the requested  5 1th.-order amplitude rhs vectors "O1 ".
         -   0 D matrix transformations 
         -   0 C matrix transformations 
         -   0 B matrix transformations 
         -   0 C{O} matrix transformations 
         -   0 B{O} matrix transformations 
         -   0 A{O} matrix transformations 
         -   5Xi{O} vector calculations    
   will be performed.



 Solution of CC response equations completed.


 *******************************************************************
 *                                                                 *
 *--------  OUTPUT FROM COUPLED CLUSTER LINEAR RESPONSE   ---------*
 *                                                                 *
 *--------     CALCULATION OF SECOND ORDER PROPERTIES     ---------*
 *                                                                 *
 *******************************************************************

 


   For the requested 25 second-order properties
         -   5 F matrix transformations with R1 vectors
         -   0 J matrix transformations with L1 vectors
         -   5 ETA and XKSI vector calculations 
         -   0 X intermediate calculations 
         -   0 2. order reortho./relax. contributions
   will be performed.



 Time used for    5 F matrix transformations:    25718.92 seconds.

 Time used for    5 O1/X1 vector calculation:     7279.88 seconds.

 Total time for  25 linear response function:    32998.81 seconds.


             +--------------------------------------------------------+
             !      FINAL CC3 RESULTS FOR THE SECOND-ORDER PROPERTIES !
             +--------------------------------------------------------+


  A operator                  B operator                     property 
------------------------------------------------------------------------

 AM010600 (unrel.) -0.0000   AM010600 (unrel.)  0.0000      1.0301801    

 AM010600 (unrel.) -0.0000   AM021700 (unrel.)  0.0000    -0.50032480    

 AM010600 (unrel.) -0.0000   AM030100 (unrel.)  0.0000    -0.17662923    

 AM010600 (unrel.) -0.0000   AM040100 (unrel.)  0.0000    -0.17663029    

 AM010600 (unrel.) -0.0000   AM050100 (unrel.)  0.0000    -0.17663029    

 AM021700 (unrel.) -0.0000   AM010600 (unrel.)  0.0000    -0.50032480    

 AM021700 (unrel.) -0.0000   AM021700 (unrel.)  0.0000     0.92437867    

 AM021700 (unrel.) -0.0000   AM030100 (unrel.)  0.0000    -0.14135204    

 AM021700 (unrel.) -0.0000   AM040100 (unrel.)  0.0000    -0.14135245    

 AM021700 (unrel.) -0.0000   AM050100 (unrel.)  0.0000    -0.14135245    

 AM030100 (unrel.) -0.0000   AM010600 (unrel.)  0.0000    -0.17662923    

 AM030100 (unrel.) -0.0000   AM021700 (unrel.)  0.0000    -0.14135204    

 AM030100 (unrel.) -0.0000   AM030100 (unrel.)  0.0000     0.43343360    

 AM030100 (unrel.) -0.0000   AM040100 (unrel.)  0.0000    -0.57719657E-01

 AM030100 (unrel.) -0.0000   AM050100 (unrel.)  0.0000    -0.57719657E-01

 AM040100 (unrel.) -0.0000   AM010600 (unrel.)  0.0000    -0.17663029    

 AM040100 (unrel.) -0.0000   AM021700 (unrel.)  0.0000    -0.14135245    

 AM040100 (unrel.) -0.0000   AM030100 (unrel.)  0.0000    -0.57719657E-01

 AM040100 (unrel.) -0.0000   AM040100 (unrel.)  0.0000     0.43343483    

 AM040100 (unrel.) -0.0000   AM050100 (unrel.)  0.0000    -0.57719343E-01

 AM050100 (unrel.) -0.0000   AM010600 (unrel.)  0.0000    -0.17663029    

 AM050100 (unrel.) -0.0000   AM021700 (unrel.)  0.0000    -0.14135245    

 AM050100 (unrel.) -0.0000   AM030100 (unrel.)  0.0000    -0.57719657E-01

 AM050100 (unrel.) -0.0000   AM040100 (unrel.)  0.0000    -0.57719343E-01

 AM050100 (unrel.) -0.0000   AM050100 (unrel.)  0.0000     0.43343483    
------------------------------------------------------------------------


  

 *******************************************************************************
 *******************************************************************************
 *                                                                             *
 *                                                                             *
 *                   SUMMARY OF COUPLED CLUSTER CALCULATION                    *
 *                                                                             *
 *                                                                             *
 *******************************************************************************
 *******************************************************************************

                                                                                
                                                                                
            Total SCF   energy:                  -499.0719847880                
            Total MP2   energy:                  -499.3768639652                
            Total CC3   energy:                  -499.4140896988                
  

 *******************************************************************************
 *******************************************************************************
 *                                                                             *
 *                                                                             *
 *                      END OF COUPLED CLUSTER CALCULATION                     *
 *                                                                             *
 *                                                                             *
 *******************************************************************************
 *******************************************************************************


 CPU and wall time for CC :  109418.525  109920.841

 
     Date and time (Linux)  : Thu Feb 20 20:30:18 2025
     Host name              : s43n06.grendel.cscaa.dk                 


                      .-------------------------------------.
                      | End of Coupled Cluster Section (CC) |
                      `-------------------------------------'

  Total CPU  time used in DALTON:  30 hours 23 minutes 40 seconds
  Total wall time used in DALTON:  30 hours 32 minutes  2 seconds

 
     Date and time (Linux)  : Thu Feb 20 20:30:18 2025
     Host name              : s43n06.grendel.cscaa.dk                 
