

     ************************************************************************
     *************** Dalton - An Electronic Structure Program ***************
     ************************************************************************

    This is output from DALTON release Dalton2024.0-dev (2024)
         ( Web site: http://daltonprogram.org )

   ----------------------------------------------------------------------------

    NOTE:
     
    Dalton is an experimental code for the evaluation of molecular
    properties using (MC)SCF, DFT, CI, and CC wave functions.
    The authors accept no responsibility for the performance of
    the code or for the correctness of the results.
     
    The code (in whole or part) is provided under a licence and
    is not to be reproduced for further distribution without
    the written permission of the authors or their representatives.
     
    See the home page "http://daltonprogram.org" for further information.
     
    If results obtained with this code are published,
    the appropriate citations would be both of:
     
       K. Aidas, C. Angeli, K. L. Bak, V. Bakken,
       R. Bast, L. Boman, O. Christiansen, R. Cimiraglia,
       S. Coriani, P. Dahle, E. K. Dalskov, U. Ekstroem,
       T. Enevoldsen, J. J. Eriksen, P. Ettenhuber, B. Fernandez,
       L. Ferrighi, H. Fliegl, L. Frediani, K. Hald, A. Halkier,
       C. Haettig, H. Heiberg, T. Helgaker, A. C. Hennum,
       H. Hettema, E. Hjertenaes, S. Hoest, I.-M. Hoeyvik,
       M. F. Iozzi, B. Jansik, H. J. Aa. Jensen, D. Jonsson,
       P. Joergensen, J. Kauczor, S. Kirpekar,
       T. Kjaergaard, W. Klopper, S. Knecht, R. Kobayashi, H. Koch,
       J. Kongsted, A. Krapp, K. Kristensen, A. Ligabue,
       O. B. Lutnaes, J. I. Melo, K. V. Mikkelsen, R. H. Myhre,
       C. Neiss, C. B. Nielsen, P. Norman, J. Olsen,
       J. M. H. Olsen, A. Osted, M. J. Packer, F. Pawlowski,
       T. B. Pedersen, P. F. Provasi, S. Reine, Z. Rinkevicius,
       T. A. Ruden, K. Ruud, V. Rybkin, P. Salek, C. C. M. Samson,
       A. Sanchez de Meras, T. Saue, S. P. A. Sauer,
       B. Schimmelpfennig, K. Sneskov, A. H. Steindal,
       K. O. Sylvester-Hvid, P. R. Taylor, A. M. Teale,
       E. I. Tellgren, D. P. Tew, A. J. Thorvaldsen, L. Thoegersen,
       O. Vahtras, M. A. Watson, D. J. D. Wilson, M. Ziolkowski
       and H. Agren,
       "The Dalton quantum chemistry program system",
       WIREs Comput. Mol. Sci. 2014, 4:269-284 (doi: 10.1002/wcms.1172)
     
    and
     
       Dalton, a molecular electronic structure program,
       Release Dalton2024.0-dev (2024), see http://daltonprogram.org
   ----------------------------------------------------------------------------

    Authors in alphabetical order (Major contribution(s) in parenthesis):

  Kestutis Aidas,              Vilnius University,        Lithuania   (QM/MM)
  Celestino Angeli,            University of Ferrara,     Italy       (NEVPT2)
  Juan J. Aucar,               Northeast National UniversiArgentina   (LRESC, Relativistic Effects on EFG)
  Keld L. Bak,                 UNI-C,                     Denmark     (AOSOPPA, non-adiabatic coupling, magnetic properties)
  Vebjoern Bakken,             University of Oslo,        Norway      (DALTON; geometry optimizer, symmetry detection)
  Radovan Bast,                UiT The Arctic U. of NorwayNorway      (DALTON installation and execution frameworks)
  Pablo Baudin,                University of Valencia,    Spain       (Cholesky excitation energies)
  Linus Boman,                 NTNU,                      Norway      (Cholesky decomposition and subsystems)
  Bruno N. Cabral Tenorio,     Technical Univ. of Denmark,Denmark     (Lanczos-based CC methods)
  Ove Christiansen,            Aarhus University,         Denmark     (CC module)
  Renzo Cimiraglia,            University of Ferrara,     Italy       (NEVPT2)
  Sonia Coriani,               Technical Univ. of Denmark,Denmark     (CC and RESPONS modules)
  Janusz Cukras,               University of Warsaw,      Poland      (MChD in RESPONS)
  Paal Dahle,                  University of Oslo,        Norway      (Parallelization)
  Erik K. Dalskov,             UNI-C,                     Denmark     (SOPPA)
  Thomas Enevoldsen,           Univ. of Southern Denmark, Denmark     (SOPPA)
  Janus J. Eriksen,            Aarhus University,         Denmark     (Polarizable embedding, TDA)
  Rasmus Faber,                Technical Univ. of Denmark,Denmark     (Vib.avg. NMR w. SOPPA, parallel AO-SOPPA, CVS-CC and EOMCC)
  Tobias Fahleson,             KTH Stockholm,             Sweden      (Damped cubic response)
  Berta Fernandez,             U. of Santiago de CompostelSpain       (Doublet spin, ESR in RESPONS)
  Lara Ferrighi,               Aarhus University,         Denmark     (PCM Cubic response)
  Heike Fliegl,                University of Oslo,        Norway      (CCSD(R12))
  Luca Frediani,               UiT The Arctic U. of NorwayNorway      (PCM)
  Emmanuel Fromager,           Univ. Strasbourg,          France      (MC-srDFT)
  Bin Gao,                     UiT The Arctic U. of NorwayNorway      (Gen1Int library)
  Andre S. P. Gomes,           CNRS/Universite de Lille,  France      (Frozen density embedding)
  Christof Haettig,            Ruhr-University Bochum,    Germany     (CC module)
  Kasper Hald,                 Aarhus University,         Denmark     (CC module)
  Asger Halkier,               Aarhus University,         Denmark     (CC module)
  Frederik Beyer Hansen,       University of Copenhagen,  Denmark     (Parallel AO-SOPPA)
  Erik D. Hedegaard,           Univ. of Southern Denmark, Denmark     (Polarizable embedding, QM/MM, and MC-srDFT)
  Hanne Heiberg,               University of Oslo,        Norway      (Geometry analysis, selected one-electron integrals)
  Trygve Helgaker,             University of Oslo,        Norway      (DALTON; ABACUS, ERI, DFT modules, London, and much more)
  Alf Christian Hennum,        University of Oslo,        Norway      (Parity violation)
  Hinne Hettema,               University of Auckland,    New Zealand (Quadratic response in RESPONS; SIRIUS supersymmetry)
  Andreas E. Hillers-Bendtsen, University of Copenhagen,  Denmark     (MP3)
  Eirik Hjertenaes,            NTNU,                      Norway      (Cholesky decomposition)
  Nicolai Machholdt Hoeyer,    Aarhus University,         Denmark     (MP3)
  Pi A. B. Haase,              University of Copenhagen,  Denmark     (Triplet AO-SOPPA)
  Maria Francesca Iozzi,       University of Oslo,        Norway      (RPA)
  Christoph Jacob,             TU Braunschweig            Germany     (Frozen density embedding)
  Brano Jansik,                Technical Univ. of Ostrava Czech Rep.  (DFT cubic response)
  Hans Joergen Aa. Jensen,     Univ. of Southern Denmark, Denmark     (DALTON; SIRIUS, RESPONS, ABACUS, MC-srDFT, and much more)
  Dan Jonsson,                 UiT The Arctic U. of NorwayNorway      (Cubic response in RESPONS module)
  Poul Joergensen,             Aarhus University,         Denmark     (RESPONS, ABACUS, and CC modules)
  Maciej Kaminski,             University of Warsaw,      Poland      (CPPh in RESPONS)
  Joanna Kauczor,              Linkoeping University,     Sweden      (Complex polarization propagator (CPP) module)
  Sheela Kirpekar,             Univ. of Southern Denmark, Denmark     (Mass-velocity & Darwin integrals)
  Frederik Oersted Kjeldal,    Technical Univ. of Denmark,Denmark     (MP3)
  Erik Kjellgren,              Univ. of Southern Denmark, Denmark     (MC-srDFT)
  Wim Klopper,                 KIT Karlsruhe,             Germany     (R12 code in CC, SIRIUS, and ABACUS modules)
  Stefan Knecht,               ETH Zurich,                Switzerland (Parallel CI and MCSCF, MC-srDFT)
  Rika Kobayashi,              Australian National Univ., Australia   (DIIS in CC, London in MCSCF)
  Henrik Koch,                 NTNU,                      Norway      (CC module, Cholesky decomposition)
  Jacob Kongsted,              Univ. of Southern Denmark, Denmark     (Polarizable embedding, polarizable density embedding, QM/MM)
  Andrea Ligabue,              University of Modena,      Italy       (CTOCD, AOSOPPA)
  Nanna H. List,               Univ. of Southern Denmark, Denmark     (Polarizable embedding)
  Ola B. Lutnaes,              University of Oslo,        Norway      (DFT Hessian)
  Juan I. Melo,                University of Buenos Aires,Argentina   (LRESC, Relativistic Effects on NMR Shieldings)
  Kurt V. Mikkelsen,           University of Copenhagen,  Denmark     (MC-SCRF, QM/MM, and MP3)
  Rolf H. Myhre,               NTNU,                      Norway      (Subsystems and CC3)
  Christian Neiss,             Univ. Erlangen-Nuernberg,  Germany     (CCSD(R12))
  Christian B. Nielsen,        University of Copenhagen,  Denmark     (QM/MM)
  Patrick Norman,              KTH Stockholm,             Sweden      (Cubic response and complex frequency response in RESPONS)
  Jeppe Olsen,                 Aarhus University,         Denmark     (SIRIUS CI/density modules)
  Jogvan Magnus H. Olsen,      Aarhus University,         Denmark     (Polarizable embedding and polarizable density embedding)
  Anders Osted,                Copenhagen University,     Denmark     (QM/MM)
  Martin J. Packer,            University of Sheffield,   UK          (SOPPA)
  Filip Pawlowski,             Kazimierz Wielki UniversityPoland      (CC3)
  Morten N. Pedersen,          Univ. of Southern Denmark, Denmark     (Polarizable embedding)
  Thomas B. Pedersen,          University of Oslo,        Norway      (Cholesky decomposition)
  Patricio F. Provasi,         University of Northeastern,Argentina   (Analysis of coupling constants in localized orbitals)
  Peter Reinholdt,             Univ. of Southern Denmark, Denmark     (Polarizable embedding and polarizable density embedding)
  Zilvinas Rinkevicius,        KTH Stockholm,             Sweden      (open-shell DFT, ESR)
  Elias Rudberg,               KTH Stockholm,             Sweden      (DFT grid and basis info)
  Torgeir A. Ruden,            University of Oslo,        Norway      (Numerical derivatives in ABACUS)
  Kenneth Ruud,                UiT The Arctic U. of NorwayNorway      (DALTON; ABACUS magnetic properties and much more)
  Pawel Salek,                 KTH Stockholm,             Sweden      (DALTON; DFT code)
  Claire C. M. Samson,         University of Karlsruhe    Germany     (Boys localization, r12 integrals in ERI)
  Alfredo Sanchez de Meras,    University of Valencia,    Spain       (CC module, Cholesky decomposition)
  Trond Saue,                  Paul Sabatier University,  France      (direct Fock matrix construction)
  Stephan P. A. Sauer,         University of Copenhagen,  Denmark     (SOPPA(CCSD), SOPPA prop., AOSOPPA, vibrational g-factors)
  Bernd Schimmelpfennig,       Forschungszentrum KarlsruheGermany     (AMFI module)
  Anna K. Schnack-Petersen,    University of Copenhagen,  Denmark     (RPA(D) and HRPA(D) properties in AOSOPPA)
  Kristian Sneskov,            Aarhus University,         Denmark     (Polarizable embedding, QM/MM)
  Arnfinn H. Steindal,         UiT The Arctic U. of NorwayNorway      (parallel QM/MM, polarizable embedding)
  Casper Steinmann,            Aalborg University,        Denmark     (QFIT, polarizable embedding)
  K. O. Sylvester-Hvid,        University of Copenhagen,  Denmark     (MC-SCRF)
  Peter R. Taylor,             VLSCI/Univ. of Melbourne,  Australia   (Symmetry handling ABACUS, integral transformation)
  Andrew M. Teale,             University of Nottingham,  England     (DFT-AC, DFT-D)
  David P. Tew,                University of Bristol,     England     (CCSD(R12))
  Julien Toulouse,             Sorbonne Univ.,            France      (MC-srDFT)
  Olav Vahtras,                KTH Stockholm,             Sweden      (Triplet response, spin-orbit, ESR, TDDFT, open-shell DFT)
  Lucas Visscher,              Vrije Universiteit AmsterdaNetherlands (Frozen density embedding)
  David J. Wilson,             La Trobe University,       Australia   (DFT Hessian and DFT magnetizabilities)
  Luna Zamok,                  University of Copenhagen,  Denmark     (Block Lanczos RPA solver in SOPPA module)
  Hans Agren,                  KTH Stockholm,             Sweden      (SIRIUS module, RESPONS, MC-SCRF solvation)
 --------------------------------------------------------------------------------

     Date and time (Linux)  : Tue Feb 25 12:28:49 2025
     Host name              : D49833                                  

 * Work memory size             :    64000000 =  488.28 megabytes.

 * Directories for basis set searches:
   1) /home/jmikk/progs/dalton-oslo/newtest
   2) /home/jmikk/progs/dalton-oslo/build/basis


Compilation information
-----------------------

 Who compiled             | jmikk
 Host                     | D49833
 System                   | Linux-5.15.153.1-microsoft-standard-WSL2
 CMake generator          | Unix Makefiles
 Processor                | x86_64
 64-bit integers          | OFF
 MPI                      | OFF
 Fortran compiler         | /usr/bin/gfortran
 Fortran compiler version | GNU Fortran (Ubuntu 11.4.0-1ubuntu1~22.04) 11.4.0
 C compiler               | /usr/bin/gcc
 C compiler version       | gcc (Ubuntu 11.4.0-1ubuntu1~22.04) 11.4.0
 C++ compiler             | /usr/bin/g++
 C++ compiler version     | g++ (Ubuntu 11.4.0-1ubuntu1~22.04) 11.4.0
 Static linking           | OFF
 Last Git revision        | 44fab7437deb48eb9b207ef65bd5d64d97861fd6
 Git branch               | crk-oslo
 Configuration time       | 2024-12-19 15:24:42.827954

 * Sequential calculation.


   Content of the .dal input file
 ----------------------------------

**DALTON INPUT
.RUN WAVE FUNCTIONS
**INTEGRALS
.DIPLEN
**WAVE FUNCTIONS
.CC
*CC INPUT
.CCSD
*CCLR
.ATMMOM
 1
**END OF DALTON INPUT


   Content of the .mol file
 ----------------------------

BASIS
STO-3G
test
test
Atomtypes=1 Angstrom NoSymmetry
Charge=1.0 Atoms=2
H   0.000   0.000   0.7
H   0.000   0.000   0.0


       *******************************************************************
       *********** Output from DALTON general input processing ***********
       *******************************************************************

 --------------------------------------------------------------------------------
   Overall default print level:    0
   Print level for DALTON.STAT:    1

    HERMIT 1- and 2-electron integral sections will be executed
    "Old" integral transformation used (limited to max 255 basis functions)
    Wave function sections will be executed (SIRIUS module)
 --------------------------------------------------------------------------------


   ****************************************************************************
   *************** Output of molecule and basis set information ***************
   ****************************************************************************


    The two title cards from your ".mol" input:
    --------------------------------------------------------------------------------
 1: test
 2: test
    --------------------------------------------------------------------------------

  Coordinates are entered in Angstrom and converted to atomic units.
          - Conversion factor : 1 bohr = 0.52917721 A

  Atomic type no.    1
  --------------------
  Nuclear charge:   1.00000
  Number of symmetry independent centers:    2
  Number of basis sets to read;    2
  Basis set file used for this atomic type with Z =   1 :
     "/home/jmikk/progs/dalton-oslo/build/basis/STO-3G"


                         SYMGRP: Point group information
                         -------------------------------

@    Point group: C1 


                                 Isotopic Masses
                                 ---------------

                           H           1.007825
                           H           1.007825

                       Total mass:     2.015650 amu
                       Natural abundance:  99.970 %

 Center-of-mass coordinates (a.u.):    0.000000    0.000000    0.661404
 Center-of-mass coordinates (Angs):    0.000000    0.000000    0.350000


  Atoms and basis sets
  --------------------

  Number of atom types :    1
  Total number of atoms:    2

  Basis set used is "STO-3G" from the basis set library.

  label    atoms   charge   prim   cont     basis
  ----------------------------------------------------------------------
  H           2    1.0000     3     1      [3s|1s]                                            
  ----------------------------------------------------------------------
  total:      2    2.0000     6     2
  ----------------------------------------------------------------------

  Threshold for neglecting AO integrals:  1.00D-12


  Cartesian Coordinates (a.u.)
  ----------------------------

  Total number of coordinates:    6
  H       :     1  x   0.0000000000    2  y   0.0000000000    3  z   1.3228082875
  H       :     4  x   0.0000000000    5  y   0.0000000000    6  z   0.0000000000


   Interatomic separations (in Angstrom):
   --------------------------------------

            H           H     
            ------      ------
 H     :    0.000000
 H     :    0.700000    0.000000


  Max    interatomic separation is    0.7000 Angstrom (    1.3228 Bohr)
  between atoms    2 and    1, "H     " and "H     ".

  Min HX interatomic separation is    0.7000 Angstrom (    1.3228 Bohr)

@ WARNING: Number of short HX and YX bond lengths:    1    0
@ WARNING: If not intentional, maybe your coordinates were in Angstrom,
@ WARNING: but "Angstrom" was not specified in .mol file


  Bond distances (Angstrom):
  --------------------------

                  atom 1     atom 2       distance
                  ------     ------       --------
  bond distance:  H          H            0.700000




 Principal moments of inertia (u*A**2) and principal axes
 --------------------------------------------------------

   IA       0.000000          0.000000    0.000000    1.000000
   IB       0.246917          0.000000    1.000000    0.000000
   IC       0.246917          1.000000    0.000000    0.000000


 Rotational constants
 --------------------

@    The molecule is linear.

               B =      2046755.59 MHz     (   68.272418 cm-1)


@  Nuclear repulsion energy :    0.755967444000 Hartree


                     .---------------------------------------.
                     | Starting in Integral Section (HERMIT) |
                     `---------------------------------------'



 ***************************************************************************************
 ****************** Output from **INTEGRALS input processing (HERMIT) ******************
 ***************************************************************************************



    *************************************************************************
    ****************** Output from HERMIT input processing ******************
    *************************************************************************


 Default print level:        1

 Calculation of one- and two-electron Hamiltonian integrals.

 The following one-electron property integrals are calculated as requested:
          - overlap integrals
          - dipole length integrals

 Center of mass  (bohr):      0.000000000000      0.000000000000      0.661404143748
 Operator center (bohr):      0.000000000000      0.000000000000      0.000000000000
 Gauge origin    (bohr):      0.000000000000      0.000000000000      0.000000000000
 Dipole origin   (bohr):      0.000000000000      0.000000000000      0.000000000000

Calculation of 2-electron integrals are postponed until they are needed.


     ************************************************************************
     ************************** Output from HERINT **************************
     ************************************************************************



                      Nuclear contribution to dipole moments
                      --------------------------------------

                 au               Debye          C m (/(10**-30)

      x      0.00000000         0.00000000         0.00000000
      y      0.00000000         0.00000000         0.00000000
      z      1.32280829         3.36224308        11.21523571


  Total CPU  time used in HERMIT:   0.00 seconds
  Total wall time used in HERMIT:   0.01 seconds


                        .----------------------------------.
                        | End of Integral Section (HERMIT) |
                        `----------------------------------'



                   .--------------------------------------------.
                   | Starting in Wave Function Section (SIRIUS) |
                   `--------------------------------------------'

 ntot          64           8           8

 *** Output from Huckel module :

     Using EWMO model:          T
     Using EHT  model:          F
     Number of Huckel orbitals each symmetry:    2

 EWMO - Energy Weighted Maximum Overlap - is a Huckel type method,
        which normally is better than Extended Huckel Theory.
 Reference: Linderberg and Ohrn, Propagators in Quantum Chemistry (Wiley, 1973)

 Huckel EWMO eigenvalues for symmetry :  1
           -0.872878      -0.127122

 **********************************************************************
 *SIRIUS* a direct, restricted step, second order MCSCF program       *
 **********************************************************************

 
     Date and time (Linux)  : Tue Feb 25 12:28:49 2025
     Host name              : D49833                                  

 Title lines from ".mol" input file:
     test
     test

 Print level on unit LUPRI =   2 is   0
 Print level on unit LUW4  =   2 is   5

@    (Integral direct) CC calculation.

@    This is a combination run starting with
@              a restricted, closed shell Hartree-Fock calculation


 Initial molecular orbitals are obtained according to
 ".MOSTART EWMO  " input option

     Wave function specification
     ============================

     For the specification of the Coupled Cluster: see below.

@    Wave function type        --- CC ---
@    Number of closed shell electrons           2
@    Number of electrons in active shells       0
@    Total charge of the molecule               0

@    Spin multiplicity and 2 M_S                1         0
@    Total number of symmetries                 1 (point group: C1 )
@    Reference state symmetry                   1 (irrep name : A  )

     Orbital specifications
     ======================
@    Abelian symmetry species          All |    1
@                                          |  A  
                                       --- |  ---
@    Occupied SCF orbitals               1 |    1
@    Secondary orbitals                  1 |    1
@    Total number of orbitals            2 |    2
@    Number of basis functions           2 |    2

     Optimization information
     ========================
@    Number of configurations                 1
@    Number of orbital rotations              1
     ------------------------------------------
@    Total number of variables                2

     Maximum number of Fock   iterations      0
     Maximum number of DIIS   iterations     60
     Maximum number of QC-SCF iterations     60
     Threshold for SCF convergence     1.00D-06


 Changes of defaults for CC:
 ---------------------------

 -Linear response properties calculated
 -Dipole moment calculated
  


 ***********************************************
 ***** DIIS acceleration of SCF iterations *****
 ***********************************************

 C1-DIIS algorithm; max error vectors =    2

 Iter      Total energy        Error norm    Delta(E)  DIIS dim.
 -----------------------------------------------------------------------------

Calculating AOSUPINT

---> (Re)generating AOTWOINT


     ************************************************************************
     ************************** Output from HERINT **************************
     ************************************************************************


 Threshold for neglecting two-electron integrals:  1.00D-12
 HERMIT - Number of two-electron integrals written:           6 (100.0% )
 HERMIT - Megabytes written:                              0.137

     (Precalculated AO two-electron integrals are transformed to P-supermatrix elements.
      Threshold for discarding integrals :  1.00D-12 )

@  1    -1.11734903585        0.00000D+00   -1.12D+00    1

@ *** DIIS converged in   1 iterations !
@     Converged SCF energy, gradient:     -1.117349035849    0.00D+00
    - total time used in SIRFCK :              0.00 seconds


 *** SCF orbital energy analysis ***

 Number of electrons        :    2
 Closed shell orbitals      :    1

 Sym       Hartree-Fock orbital energies

1 A      -0.59546348     0.71416525

    E(LUMO) :     0.71416525 au (symmetry 1)
  - E(HOMO) :    -0.59546348 au (symmetry 1)
  ------------------------------------------
    gap     :     1.30962873 au

 --- Writing SIRIFC interface file

--------------------------------------------------------------------------------


     .--------------------------------------------------.
     | HF-SCF KT IPs [a.u. & eV] from Koopmans' theorem |
     `--------------------------------------------------'


     HF-SCF KT symmetry 1 ( A  ) in point group C1  -- 1 principal poles with pole strength 1

   ============
       0.595463
      16.203385
   ============

@ Summary of HF-SCF KT ionization potentials [eV]:

@ Symmetry 1 (A  ) :    16.203

  === End of HF-SCF KT output ===
--------------------------------------------------------------------------------


 CPU and wall time for SCF :       0.003       0.007


                       .-----------------------------------.
                       | --- Final results from SIRIUS --- |
                       `-----------------------------------'


@    Spin multiplicity:           1
@    Spatial symmetry:            1 ( irrep  A   in C1  )
@    Total charge of molecule:    0

@    Final HF energy:              -1.117349035849                 
@    Nuclear repulsion:             0.755967444000
@    Electronic energy:            -1.873316479849

@    Final gradient norm:           0.000000000000

 
     Date and time (Linux)  : Tue Feb 25 12:28:49 2025
     Host name              : D49833                                  

File label for MO orbitals:  25Feb25   FOCKDIIS

 (Only coefficients > 0.0100 are printed.)

 Molecular orbitals for symmetry species 1  (A  )
 ------------------------------------------------

    Orbital         1        2
   1 H   :1s     0.5446  -1.2621
   2 H   :1s     0.5446   1.2621

  Total CPU  time used in SIRIUS :   0.01 seconds
  Total wall time used in SIRIUS :   0.02 seconds

 
     Date and time (Linux)  : Tue Feb 25 12:28:49 2025
     Host name              : D49833                                  


                     .---------------------------------------.
                     | End of Wave Function Section (SIRIUS) |
                     `---------------------------------------'



                    .------------------------------------------.
                    | Starting in Coupled Cluster Section (CC) |
                    `------------------------------------------'

  

 *******************************************************************************
 *******************************************************************************
 *                                                                             *
 *                                                                             *
 *                    START OF COUPLED CLUSTER CALCULATION                     *
 *                                                                             *
 *                                                                             *
 *******************************************************************************
 *******************************************************************************



 CCR12 ANSATZ =   0

 CCR12 APPROX =   0

   

 *******************************************************************
 *                                                                 *
 *----------                                             >---------*
 *---------- OUTPUT FROM COUPLED CLUSTER ENERGY PROGRAM  >---------*
 *----------                                             >---------*
 *                                                                 *
 *******************************************************************


             The Direct Coupled Cluster Energy Program
             -----------------------------------------


          Number of t1 amplitudes                 :         1
          Number of t2 amplitudes                 :         1
          Total number of amplitudes in ccsd      :         2

 Iter.  1: Coupled cluster MP2   energy :      -1.1295819702389123
 Iter.  1: Coupled cluster CCSD  energy :      -1.1339030168237005
 Iter.  2: Coupled cluster CCSD  energy :      -1.1361982861696138
 Iter.  3: Coupled cluster CCSD  energy :      -1.1361942182782532
 Iter.  4: Coupled cluster CCSD  energy :      -1.1361938609336664
 Iter.  5: Coupled cluster CCSD  energy :      -1.1362039577032101
 Iter.  6: Coupled cluster CCSD  energy :      -1.1361898457182853
 Iter.  7: Coupled cluster CCSD  energy :      -1.1361797394457158
 Iter.  8: Coupled cluster CCSD  energy :      -1.1361823701564941
 Iter.  9: Coupled cluster CCSD  energy :      -1.1361870208796006
 Iter. 10: Coupled cluster CCSD  energy :      -1.1361894544738638
 Iter. 11: Coupled cluster CCSD  energy :      -1.1361894544658062

 CCSD  energy converged to within   0.10D-07 is           -1.136189454466
 Final 2-norm of the CC vector function:  9.63147201D-11





             +-------------------------------------------------------+
             ! Final results from the Coupled Cluster energy program !
             +-------------------------------------------------------+



            Total SCF   energy:                    -1.1173490358

            Total MP2   energy:                    -1.1295819702

            Total CCSD  energy:                    -1.1361894545




                   +--------------------------------------------+
                   ! Calculating singlet intermediates for CCLR !
                   +--------------------------------------------+



            E-intermediates calculated 
            Fock-intermediate calculated 
            Gamma-intermediate calculated 
            BF-intermediate calculated 
            C-intermediate calculated 
            D-intermediate calculated 


   

 *******************************************************************
 *                                                                 *
 *---- OUTPUT FROM COUPLED CLUSTER RESPONSE  -------------*
 *                                                                 *
 *******************************************************************



                         +--------------------------------+
                         ! Coupled Cluster model is: CCSD !
                         +--------------------------------+



                            +--------------------------+
                            ! CCSD Natural Occupations !
                            +--------------------------+

  
   Symmetry block number:  1
   ---------------------
  
   1.97808621   0.02191379
  
   Sum in this symmetry class:   2.000000
  
  
   Total Sum of natural occupation numbers:   2.000000
  
   Dynamical correlation move: 0.021914 electrons
  


             +--------------------------------------------------------+
             ! Unrelaxed CCSD    First-order one-electron properties: !
             +--------------------------------------------------------+



                            +-------------------------+
                            !  Electric Dipole Moment !
                            +-------------------------+

WARNING: integrals for operator with LABEL XDIPLEN  are smaller than   1.0000000D-12
WARNING: irrep symmetry can not be determined.
WARNING: integrals for operator with LABEL YDIPLEN  are smaller than   1.0000000D-12
WARNING: irrep symmetry can not be determined.


                          Total Molecular Dipole Moment
                          -----------------------------

                 au               Debye          C m (/(10**-30)

      x      0.00000000         0.00000000         0.00000000
      y      0.00000000         0.00000000         0.00000000
      z     -0.00000000        -0.00000000        -0.00000000


  grid points, tot elec.
     36516        2.0000000123
  
     

   *******************************************************************
   *                                                                 *
   *--------   OUTPUT FROM PROPERTY AND SYMMETRY ANALYSIS   ---------*
   *                                                                 *
   *******************************************************************

WARNING: integrals for operator with LABEL AM01010x are smaller than   1.0000000D-12
WARNING: irrep symmetry can not be determined.
WARNING: integrals for operator with LABEL AM01010y are smaller than   1.0000000D-12
WARNING: irrep symmetry can not be determined.
WARNING: integrals for operator with LABEL AM02010x are smaller than   1.0000000D-12
WARNING: irrep symmetry can not be determined.
WARNING: integrals for operator with LABEL AM02010y are smaller than   1.0000000D-12
WARNING: irrep symmetry can not be determined.

 WARNING: OPERATOR WITH LABEL "AM01010x" NOT AVAILABLE.

   WARNING: ONE OF THE OPERATORS WITH THE LABELS "AM010100", "AM01010x" IS NOT AVAILABLE.
   LINEAR RESPONSE CALCULATION IS CANCELED FOR THIS OPERATOR PAIR.

 WARNING: OPERATOR WITH LABEL "AM01010y" NOT AVAILABLE.

   WARNING: ONE OF THE OPERATORS WITH THE LABELS "AM010100", "AM01010y" IS NOT AVAILABLE.
   LINEAR RESPONSE CALCULATION IS CANCELED FOR THIS OPERATOR PAIR.

 WARNING: OPERATOR WITH LABEL "AM02010x" NOT AVAILABLE.

   WARNING: ONE OF THE OPERATORS WITH THE LABELS "AM010100", "AM02010x" IS NOT AVAILABLE.
   LINEAR RESPONSE CALCULATION IS CANCELED FOR THIS OPERATOR PAIR.

 WARNING: OPERATOR WITH LABEL "AM02010y" NOT AVAILABLE.

   WARNING: ONE OF THE OPERATORS WITH THE LABELS "AM010100", "AM02010y" IS NOT AVAILABLE.
   LINEAR RESPONSE CALCULATION IS CANCELED FOR THIS OPERATOR PAIR.

 WARNING: OPERATOR WITH LABEL "AM01010x" NOT AVAILABLE.

   WARNING: ONE OF THE OPERATORS WITH THE LABELS "AM020100", "AM01010x" IS NOT AVAILABLE.
   LINEAR RESPONSE CALCULATION IS CANCELED FOR THIS OPERATOR PAIR.

 WARNING: OPERATOR WITH LABEL "AM01010y" NOT AVAILABLE.

   WARNING: ONE OF THE OPERATORS WITH THE LABELS "AM020100", "AM01010y" IS NOT AVAILABLE.
   LINEAR RESPONSE CALCULATION IS CANCELED FOR THIS OPERATOR PAIR.

 WARNING: OPERATOR WITH LABEL "AM02010x" NOT AVAILABLE.

   WARNING: ONE OF THE OPERATORS WITH THE LABELS "AM020100", "AM02010x" IS NOT AVAILABLE.
   LINEAR RESPONSE CALCULATION IS CANCELED FOR THIS OPERATOR PAIR.

 WARNING: OPERATOR WITH LABEL "AM02010y" NOT AVAILABLE.

   WARNING: ONE OF THE OPERATORS WITH THE LABELS "AM020100", "AM02010y" IS NOT AVAILABLE.
   LINEAR RESPONSE CALCULATION IS CANCELED FOR THIS OPERATOR PAIR.

 WARNING: OPERATOR WITH LABEL "AM01010x" NOT AVAILABLE.

   WARNING: ONE OF THE OPERATORS WITH THE LABELS "AM01010x", "AM010100" IS NOT AVAILABLE.
   LINEAR RESPONSE CALCULATION IS CANCELED FOR THIS OPERATOR PAIR.

 WARNING: OPERATOR WITH LABEL "AM01010x" NOT AVAILABLE.

   WARNING: ONE OF THE OPERATORS WITH THE LABELS "AM01010x", "AM020100" IS NOT AVAILABLE.
   LINEAR RESPONSE CALCULATION IS CANCELED FOR THIS OPERATOR PAIR.

 WARNING: OPERATOR WITH LABEL "AM01010x" NOT AVAILABLE.

 WARNING: OPERATOR WITH LABEL "AM01010x" NOT AVAILABLE.

   WARNING: ONE OF THE OPERATORS WITH THE LABELS "AM01010x", "AM01010x" IS NOT AVAILABLE.
   LINEAR RESPONSE CALCULATION IS CANCELED FOR THIS OPERATOR PAIR.

 WARNING: OPERATOR WITH LABEL "AM01010x" NOT AVAILABLE.

 WARNING: OPERATOR WITH LABEL "AM01010y" NOT AVAILABLE.

   WARNING: ONE OF THE OPERATORS WITH THE LABELS "AM01010x", "AM01010y" IS NOT AVAILABLE.
   LINEAR RESPONSE CALCULATION IS CANCELED FOR THIS OPERATOR PAIR.

 WARNING: OPERATOR WITH LABEL "AM01010x" NOT AVAILABLE.

   WARNING: ONE OF THE OPERATORS WITH THE LABELS "AM01010x", "AM01010z" IS NOT AVAILABLE.
   LINEAR RESPONSE CALCULATION IS CANCELED FOR THIS OPERATOR PAIR.

 WARNING: OPERATOR WITH LABEL "AM01010x" NOT AVAILABLE.

 WARNING: OPERATOR WITH LABEL "AM02010x" NOT AVAILABLE.

   WARNING: ONE OF THE OPERATORS WITH THE LABELS "AM01010x", "AM02010x" IS NOT AVAILABLE.
   LINEAR RESPONSE CALCULATION IS CANCELED FOR THIS OPERATOR PAIR.

 WARNING: OPERATOR WITH LABEL "AM01010x" NOT AVAILABLE.

 WARNING: OPERATOR WITH LABEL "AM02010y" NOT AVAILABLE.

   WARNING: ONE OF THE OPERATORS WITH THE LABELS "AM01010x", "AM02010y" IS NOT AVAILABLE.
   LINEAR RESPONSE CALCULATION IS CANCELED FOR THIS OPERATOR PAIR.

 WARNING: OPERATOR WITH LABEL "AM01010x" NOT AVAILABLE.

   WARNING: ONE OF THE OPERATORS WITH THE LABELS "AM01010x", "AM02010z" IS NOT AVAILABLE.
   LINEAR RESPONSE CALCULATION IS CANCELED FOR THIS OPERATOR PAIR.

 WARNING: OPERATOR WITH LABEL "AM01010y" NOT AVAILABLE.

   WARNING: ONE OF THE OPERATORS WITH THE LABELS "AM01010y", "AM010100" IS NOT AVAILABLE.
   LINEAR RESPONSE CALCULATION IS CANCELED FOR THIS OPERATOR PAIR.

 WARNING: OPERATOR WITH LABEL "AM01010y" NOT AVAILABLE.

   WARNING: ONE OF THE OPERATORS WITH THE LABELS "AM01010y", "AM020100" IS NOT AVAILABLE.
   LINEAR RESPONSE CALCULATION IS CANCELED FOR THIS OPERATOR PAIR.

 WARNING: OPERATOR WITH LABEL "AM01010y" NOT AVAILABLE.

 WARNING: OPERATOR WITH LABEL "AM01010x" NOT AVAILABLE.

   WARNING: ONE OF THE OPERATORS WITH THE LABELS "AM01010y", "AM01010x" IS NOT AVAILABLE.
   LINEAR RESPONSE CALCULATION IS CANCELED FOR THIS OPERATOR PAIR.

 WARNING: OPERATOR WITH LABEL "AM01010y" NOT AVAILABLE.

 WARNING: OPERATOR WITH LABEL "AM01010y" NOT AVAILABLE.

   WARNING: ONE OF THE OPERATORS WITH THE LABELS "AM01010y", "AM01010y" IS NOT AVAILABLE.
   LINEAR RESPONSE CALCULATION IS CANCELED FOR THIS OPERATOR PAIR.

 WARNING: OPERATOR WITH LABEL "AM01010y" NOT AVAILABLE.

   WARNING: ONE OF THE OPERATORS WITH THE LABELS "AM01010y", "AM01010z" IS NOT AVAILABLE.
   LINEAR RESPONSE CALCULATION IS CANCELED FOR THIS OPERATOR PAIR.

 WARNING: OPERATOR WITH LABEL "AM01010y" NOT AVAILABLE.

 WARNING: OPERATOR WITH LABEL "AM02010x" NOT AVAILABLE.

   WARNING: ONE OF THE OPERATORS WITH THE LABELS "AM01010y", "AM02010x" IS NOT AVAILABLE.
   LINEAR RESPONSE CALCULATION IS CANCELED FOR THIS OPERATOR PAIR.

 WARNING: OPERATOR WITH LABEL "AM01010y" NOT AVAILABLE.

 WARNING: OPERATOR WITH LABEL "AM02010y" NOT AVAILABLE.

   WARNING: ONE OF THE OPERATORS WITH THE LABELS "AM01010y", "AM02010y" IS NOT AVAILABLE.
   LINEAR RESPONSE CALCULATION IS CANCELED FOR THIS OPERATOR PAIR.

 WARNING: OPERATOR WITH LABEL "AM01010y" NOT AVAILABLE.

   WARNING: ONE OF THE OPERATORS WITH THE LABELS "AM01010y", "AM02010z" IS NOT AVAILABLE.
   LINEAR RESPONSE CALCULATION IS CANCELED FOR THIS OPERATOR PAIR.

 WARNING: OPERATOR WITH LABEL "AM01010x" NOT AVAILABLE.

   WARNING: ONE OF THE OPERATORS WITH THE LABELS "AM01010z", "AM01010x" IS NOT AVAILABLE.
   LINEAR RESPONSE CALCULATION IS CANCELED FOR THIS OPERATOR PAIR.

 WARNING: OPERATOR WITH LABEL "AM01010y" NOT AVAILABLE.

   WARNING: ONE OF THE OPERATORS WITH THE LABELS "AM01010z", "AM01010y" IS NOT AVAILABLE.
   LINEAR RESPONSE CALCULATION IS CANCELED FOR THIS OPERATOR PAIR.

 WARNING: OPERATOR WITH LABEL "AM02010x" NOT AVAILABLE.

   WARNING: ONE OF THE OPERATORS WITH THE LABELS "AM01010z", "AM02010x" IS NOT AVAILABLE.
   LINEAR RESPONSE CALCULATION IS CANCELED FOR THIS OPERATOR PAIR.

 WARNING: OPERATOR WITH LABEL "AM02010y" NOT AVAILABLE.

   WARNING: ONE OF THE OPERATORS WITH THE LABELS "AM01010z", "AM02010y" IS NOT AVAILABLE.
   LINEAR RESPONSE CALCULATION IS CANCELED FOR THIS OPERATOR PAIR.

 WARNING: OPERATOR WITH LABEL "AM02010x" NOT AVAILABLE.

   WARNING: ONE OF THE OPERATORS WITH THE LABELS "AM02010x", "AM010100" IS NOT AVAILABLE.
   LINEAR RESPONSE CALCULATION IS CANCELED FOR THIS OPERATOR PAIR.

 WARNING: OPERATOR WITH LABEL "AM02010x" NOT AVAILABLE.

   WARNING: ONE OF THE OPERATORS WITH THE LABELS "AM02010x", "AM020100" IS NOT AVAILABLE.
   LINEAR RESPONSE CALCULATION IS CANCELED FOR THIS OPERATOR PAIR.

 WARNING: OPERATOR WITH LABEL "AM02010x" NOT AVAILABLE.

 WARNING: OPERATOR WITH LABEL "AM01010x" NOT AVAILABLE.

   WARNING: ONE OF THE OPERATORS WITH THE LABELS "AM02010x", "AM01010x" IS NOT AVAILABLE.
   LINEAR RESPONSE CALCULATION IS CANCELED FOR THIS OPERATOR PAIR.

 WARNING: OPERATOR WITH LABEL "AM02010x" NOT AVAILABLE.

 WARNING: OPERATOR WITH LABEL "AM01010y" NOT AVAILABLE.

   WARNING: ONE OF THE OPERATORS WITH THE LABELS "AM02010x", "AM01010y" IS NOT AVAILABLE.
   LINEAR RESPONSE CALCULATION IS CANCELED FOR THIS OPERATOR PAIR.

 WARNING: OPERATOR WITH LABEL "AM02010x" NOT AVAILABLE.

   WARNING: ONE OF THE OPERATORS WITH THE LABELS "AM02010x", "AM01010z" IS NOT AVAILABLE.
   LINEAR RESPONSE CALCULATION IS CANCELED FOR THIS OPERATOR PAIR.

 WARNING: OPERATOR WITH LABEL "AM02010x" NOT AVAILABLE.

 WARNING: OPERATOR WITH LABEL "AM02010x" NOT AVAILABLE.

   WARNING: ONE OF THE OPERATORS WITH THE LABELS "AM02010x", "AM02010x" IS NOT AVAILABLE.
   LINEAR RESPONSE CALCULATION IS CANCELED FOR THIS OPERATOR PAIR.

 WARNING: OPERATOR WITH LABEL "AM02010x" NOT AVAILABLE.

 WARNING: OPERATOR WITH LABEL "AM02010y" NOT AVAILABLE.

   WARNING: ONE OF THE OPERATORS WITH THE LABELS "AM02010x", "AM02010y" IS NOT AVAILABLE.
   LINEAR RESPONSE CALCULATION IS CANCELED FOR THIS OPERATOR PAIR.

 WARNING: OPERATOR WITH LABEL "AM02010x" NOT AVAILABLE.

   WARNING: ONE OF THE OPERATORS WITH THE LABELS "AM02010x", "AM02010z" IS NOT AVAILABLE.
   LINEAR RESPONSE CALCULATION IS CANCELED FOR THIS OPERATOR PAIR.

 WARNING: OPERATOR WITH LABEL "AM02010y" NOT AVAILABLE.

   WARNING: ONE OF THE OPERATORS WITH THE LABELS "AM02010y", "AM010100" IS NOT AVAILABLE.
   LINEAR RESPONSE CALCULATION IS CANCELED FOR THIS OPERATOR PAIR.

 WARNING: OPERATOR WITH LABEL "AM02010y" NOT AVAILABLE.

   WARNING: ONE OF THE OPERATORS WITH THE LABELS "AM02010y", "AM020100" IS NOT AVAILABLE.
   LINEAR RESPONSE CALCULATION IS CANCELED FOR THIS OPERATOR PAIR.

 WARNING: OPERATOR WITH LABEL "AM02010y" NOT AVAILABLE.

 WARNING: OPERATOR WITH LABEL "AM01010x" NOT AVAILABLE.

   WARNING: ONE OF THE OPERATORS WITH THE LABELS "AM02010y", "AM01010x" IS NOT AVAILABLE.
   LINEAR RESPONSE CALCULATION IS CANCELED FOR THIS OPERATOR PAIR.

 WARNING: OPERATOR WITH LABEL "AM02010y" NOT AVAILABLE.

 WARNING: OPERATOR WITH LABEL "AM01010y" NOT AVAILABLE.

   WARNING: ONE OF THE OPERATORS WITH THE LABELS "AM02010y", "AM01010y" IS NOT AVAILABLE.
   LINEAR RESPONSE CALCULATION IS CANCELED FOR THIS OPERATOR PAIR.

 WARNING: OPERATOR WITH LABEL "AM02010y" NOT AVAILABLE.

   WARNING: ONE OF THE OPERATORS WITH THE LABELS "AM02010y", "AM01010z" IS NOT AVAILABLE.
   LINEAR RESPONSE CALCULATION IS CANCELED FOR THIS OPERATOR PAIR.

 WARNING: OPERATOR WITH LABEL "AM02010y" NOT AVAILABLE.

 WARNING: OPERATOR WITH LABEL "AM02010x" NOT AVAILABLE.

   WARNING: ONE OF THE OPERATORS WITH THE LABELS "AM02010y", "AM02010x" IS NOT AVAILABLE.
   LINEAR RESPONSE CALCULATION IS CANCELED FOR THIS OPERATOR PAIR.

 WARNING: OPERATOR WITH LABEL "AM02010y" NOT AVAILABLE.

 WARNING: OPERATOR WITH LABEL "AM02010y" NOT AVAILABLE.

   WARNING: ONE OF THE OPERATORS WITH THE LABELS "AM02010y", "AM02010y" IS NOT AVAILABLE.
   LINEAR RESPONSE CALCULATION IS CANCELED FOR THIS OPERATOR PAIR.

 WARNING: OPERATOR WITH LABEL "AM02010y" NOT AVAILABLE.

   WARNING: ONE OF THE OPERATORS WITH THE LABELS "AM02010y", "AM02010z" IS NOT AVAILABLE.
   LINEAR RESPONSE CALCULATION IS CANCELED FOR THIS OPERATOR PAIR.

 WARNING: OPERATOR WITH LABEL "AM01010x" NOT AVAILABLE.

   WARNING: ONE OF THE OPERATORS WITH THE LABELS "AM02010z", "AM01010x" IS NOT AVAILABLE.
   LINEAR RESPONSE CALCULATION IS CANCELED FOR THIS OPERATOR PAIR.

 WARNING: OPERATOR WITH LABEL "AM01010y" NOT AVAILABLE.

   WARNING: ONE OF THE OPERATORS WITH THE LABELS "AM02010z", "AM01010y" IS NOT AVAILABLE.
   LINEAR RESPONSE CALCULATION IS CANCELED FOR THIS OPERATOR PAIR.

 WARNING: OPERATOR WITH LABEL "AM02010x" NOT AVAILABLE.

   WARNING: ONE OF THE OPERATORS WITH THE LABELS "AM02010z", "AM02010x" IS NOT AVAILABLE.
   LINEAR RESPONSE CALCULATION IS CANCELED FOR THIS OPERATOR PAIR.

 WARNING: OPERATOR WITH LABEL "AM02010y" NOT AVAILABLE.

   WARNING: ONE OF THE OPERATORS WITH THE LABELS "AM02010z", "AM02010y" IS NOT AVAILABLE.
   LINEAR RESPONSE CALCULATION IS CANCELED FOR THIS OPERATOR PAIR.


                         +-------------------------------+
                         ! REQUESTED PROPERTY OPERATORS: !
                         +-------------------------------+

             Index   Oper. Label  Symmetry  Transp.  PDBS  Atom
             --------------------------------------------------
                1     AM010100        1        1      F      0
                2     AM01010z        1        1      F      0
                3     AM020100        1        1      F      0
                4     AM02010z        1        1      F      0
                5     HAM0            1        1      T      0
             --------------------------------------------------




                         +-------------------------------+
                         ! REQUESTED EXPECTATION VALUES: !
                         +-------------------------------+

                       Index   Oper. Label  Symmetry
                       -----------------------------
                       -----------------------------




                       +------------------------------------+
                       ! REQUESTED EFFECTIVE FOCK MATRICES: !
                       +------------------------------------+

                       Index   Oper. Label  Symmetry
                       -----------------------------
                       -----------------------------




                       +-----------------------------------+
                       ! REQUESTED FIRST ORDER XI VECTORS: !
                       +-----------------------------------+

             Index   Oper. Label  relaxed  Sym.     Frequency
             --------------------------------------------------
                1      AM010100       F     1      0.000000D+00
                2      AM01010z       F     1      0.000000D+00
                3      AM020100       F     1      0.000000D+00
                4      AM02010z       F     1      0.000000D+00
             --------------------------------------------------




                        +----------------------------------+
                        ! REQUESTED FIRST ORDER T VECTORS: !
                        +----------------------------------+

             Index   Oper. Label  relaxed  Sym.     Frequency
             --------------------------------------------------
                1      AM010100       F     1      0.000000D+00
                2      AM01010z       F     1      0.000000D+00
                3      AM020100       F     1      0.000000D+00
                4      AM02010z       F     1      0.000000D+00
             --------------------------------------------------


      

    *******************************************************************
    *          SOLVING COUPLED CLUSTER RESPONSE EQUATIONS             *
    *******************************************************************



 
 +======================================================================+
 !                     RHS & ETA VECTORS TO COMPUTE:                    !
 +======================================================================+
 | TYPE | # VEC. |  NEEDED FOR:                                         |
 +----------------------------------------------------------------------+
 |  O1  |    4   |  first-order amplitude equations                     |
 +======================================================================+



 +======================================================================+
 !                       LINEAR EQUATIONS TO SOLVE:                     !
 +======================================================================+
 | TYPE | # VEC. |  EQUATION:                                           |
 +----------------------------------------------------------------------+
 |  R1  |    4   |  first-order amplitude response                      |
 +======================================================================+



 +======================================================================+
 !                F MATRIX TRANSFORMATIONS TO COMPUTE:                  !
 +======================================================================+
 | TYPE | # VEC. |  TRANSFORMED:                                        |
 +----------------------------------------------------------------------+
 |  F1  |    4   |  first-order amplitude response (R1) vector          |
 +======================================================================+




 -------------------------------------------------------------------
 |          OUTPUT FROM AMPLITUDE RHS VECTOR SECTION               |
 -------------------------------------------------------------------

@ WARNING: ETA1 VECTOR FOR AM010100( F, 0.00000D+00) IS NOT AVAILABLE.
@ WARNING: ETA1 VECTOR FOR AM01010z( F, 0.00000D+00) IS NOT AVAILABLE.
@ WARNING: ETA1 VECTOR FOR AM020100( F, 0.00000D+00) IS NOT AVAILABLE.
@ WARNING: ETA1 VECTOR FOR AM02010z( F, 0.00000D+00) IS NOT AVAILABLE.


   For the requested  4 1th.-order amplitude rhs vectors "O1 ".
         -   0 D matrix transformations 
         -   0 C matrix transformations 
         -   0 B matrix transformations 
         -   0 C{O} matrix transformations 
         -   0 B{O} matrix transformations 
         -   0 A{O} matrix transformations 
         -   4Xi{O} vector calculations    
   will be performed.



 Solution of CC response equations completed.


 *******************************************************************
 *                                                                 *
 *--------  OUTPUT FROM COUPLED CLUSTER LINEAR RESPONSE   ---------*
 *                                                                 *
 *--------     CALCULATION OF SECOND ORDER PROPERTIES     ---------*
 *                                                                 *
 *******************************************************************

 


   For the requested 16 second-order properties
         -   4 F matrix transformations with R1 vectors
         -   0 J matrix transformations with L1 vectors
         -   4 ETA and XKSI vector calculations 
         -   0 X intermediate calculations 
         -   0 2. order reortho./relax. contributions
   will be performed.



 Time used for    4 F matrix transformations:        0.00 seconds.

 Time used for    4 O1/X1 vector calculation:        0.00 seconds.

 Total time for  16 linear response function:        0.01 seconds.


            +---------------------------------------------------------+
            !      FINAL CCSD RESULTS FOR THE SECOND-ORDER PROPERTIES !
            +---------------------------------------------------------+


  A operator                  B operator                     property 
------------------------------------------------------------------------

 AM010100 (unrel.) -0.0000   AM010100 (unrel.)  0.0000     0.34493079    

 AM010100 (unrel.) -0.0000   AM020100 (unrel.)  0.0000    -0.34493079    

 AM010100 (unrel.) -0.0000   AM01010z (unrel.)  0.0000     0.24327976    

 AM010100 (unrel.) -0.0000   AM02010z (unrel.)  0.0000     0.24327976    

 AM020100 (unrel.) -0.0000   AM010100 (unrel.)  0.0000    -0.34493079    

 AM020100 (unrel.) -0.0000   AM020100 (unrel.)  0.0000     0.34493079    

 AM020100 (unrel.) -0.0000   AM01010z (unrel.)  0.0000    -0.24327976    

 AM020100 (unrel.) -0.0000   AM02010z (unrel.)  0.0000    -0.24327976    

 AM01010z (unrel.) -0.0000   AM010100 (unrel.)  0.0000     0.24327976    

 AM01010z (unrel.) -0.0000   AM020100 (unrel.)  0.0000    -0.24327976    

 AM01010z (unrel.) -0.0000   AM01010z (unrel.)  0.0000     0.17322177    

 AM01010z (unrel.) -0.0000   AM02010z (unrel.)  0.0000     0.16994877    

 AM02010z (unrel.) -0.0000   AM010100 (unrel.)  0.0000     0.24327976    

 AM02010z (unrel.) -0.0000   AM020100 (unrel.)  0.0000    -0.24327976    

 AM02010z (unrel.) -0.0000   AM01010z (unrel.)  0.0000     0.16994877    

 AM02010z (unrel.) -0.0000   AM02010z (unrel.)  0.0000     0.17322177    
------------------------------------------------------------------------


  

 *******************************************************************************
 *******************************************************************************
 *                                                                             *
 *                                                                             *
 *                   SUMMARY OF COUPLED CLUSTER CALCULATION                    *
 *                                                                             *
 *                                                                             *
 *******************************************************************************
 *******************************************************************************

                                                                                
                                                                                
            Total SCF   energy:                    -1.1173490358                
            Total MP2   energy:                    -1.1295819702                
            Total CCSD  energy:                    -1.1361894545                
  

 *******************************************************************************
 *******************************************************************************
 *                                                                             *
 *                                                                             *
 *                      END OF COUPLED CLUSTER CALCULATION                     *
 *                                                                             *
 *                                                                             *
 *******************************************************************************
 *******************************************************************************


 CPU and wall time for CC :       0.087       0.177

 
     Date and time (Linux)  : Tue Feb 25 12:28:49 2025
     Host name              : D49833                                  


                      .-------------------------------------.
                      | End of Coupled Cluster Section (CC) |
                      `-------------------------------------'

  Total CPU  time used in DALTON:   0.10 seconds
  Total wall time used in DALTON:   0.22 seconds

 NOTE:    1 warnings have been issued.
 Check output, result, and error files for "WARNING".

 
     Date and time (Linux)  : Tue Feb 25 12:28:49 2025
     Host name              : D49833                                  
