

     ************************************************************************
     *************** Dalton - An Electronic Structure Program ***************
     ************************************************************************

    This is output from DALTON release Dalton2024.0-dev (2024)
         ( Web site: http://daltonprogram.org )

   ----------------------------------------------------------------------------

    NOTE:
     
    Dalton is an experimental code for the evaluation of molecular
    properties using (MC)SCF, DFT, CI, and CC wave functions.
    The authors accept no responsibility for the performance of
    the code or for the correctness of the results.
     
    The code (in whole or part) is provided under a licence and
    is not to be reproduced for further distribution without
    the written permission of the authors or their representatives.
     
    See the home page "http://daltonprogram.org" for further information.
     
    If results obtained with this code are published,
    the appropriate citations would be both of:
     
       K. Aidas, C. Angeli, K. L. Bak, V. Bakken,
       R. Bast, L. Boman, O. Christiansen, R. Cimiraglia,
       S. Coriani, P. Dahle, E. K. Dalskov, U. Ekstroem,
       T. Enevoldsen, J. J. Eriksen, P. Ettenhuber, B. Fernandez,
       L. Ferrighi, H. Fliegl, L. Frediani, K. Hald, A. Halkier,
       C. Haettig, H. Heiberg, T. Helgaker, A. C. Hennum,
       H. Hettema, E. Hjertenaes, S. Hoest, I.-M. Hoeyvik,
       M. F. Iozzi, B. Jansik, H. J. Aa. Jensen, D. Jonsson,
       P. Joergensen, J. Kauczor, S. Kirpekar,
       T. Kjaergaard, W. Klopper, S. Knecht, R. Kobayashi, H. Koch,
       J. Kongsted, A. Krapp, K. Kristensen, A. Ligabue,
       O. B. Lutnaes, J. I. Melo, K. V. Mikkelsen, R. H. Myhre,
       C. Neiss, C. B. Nielsen, P. Norman, J. Olsen,
       J. M. H. Olsen, A. Osted, M. J. Packer, F. Pawlowski,
       T. B. Pedersen, P. F. Provasi, S. Reine, Z. Rinkevicius,
       T. A. Ruden, K. Ruud, V. Rybkin, P. Salek, C. C. M. Samson,
       A. Sanchez de Meras, T. Saue, S. P. A. Sauer,
       B. Schimmelpfennig, K. Sneskov, A. H. Steindal,
       K. O. Sylvester-Hvid, P. R. Taylor, A. M. Teale,
       E. I. Tellgren, D. P. Tew, A. J. Thorvaldsen, L. Thoegersen,
       O. Vahtras, M. A. Watson, D. J. D. Wilson, M. Ziolkowski
       and H. Agren,
       "The Dalton quantum chemistry program system",
       WIREs Comput. Mol. Sci. 2014, 4:269-284 (doi: 10.1002/wcms.1172)
     
    and
     
       Dalton, a molecular electronic structure program,
       Release Dalton2024.0-dev (2024), see http://daltonprogram.org
   ----------------------------------------------------------------------------

    Authors in alphabetical order (Major contribution(s) in parenthesis):

  Kestutis Aidas,              Vilnius University,        Lithuania   (QM/MM)
  Celestino Angeli,            University of Ferrara,     Italy       (NEVPT2)
  Juan J. Aucar,               Northeast National UniversiArgentina   (LRESC, Relativistic Effects on EFG)
  Keld L. Bak,                 UNI-C,                     Denmark     (AOSOPPA, non-adiabatic coupling, magnetic properties)
  Vebjoern Bakken,             University of Oslo,        Norway      (DALTON; geometry optimizer, symmetry detection)
  Radovan Bast,                UiT The Arctic U. of NorwayNorway      (DALTON installation and execution frameworks)
  Pablo Baudin,                University of Valencia,    Spain       (Cholesky excitation energies)
  Linus Boman,                 NTNU,                      Norway      (Cholesky decomposition and subsystems)
  Bruno N. Cabral Tenorio,     Technical Univ. of Denmark,Denmark     (Lanczos-based CC methods)
  Ove Christiansen,            Aarhus University,         Denmark     (CC module)
  Renzo Cimiraglia,            University of Ferrara,     Italy       (NEVPT2)
  Sonia Coriani,               Technical Univ. of Denmark,Denmark     (CC and RESPONS modules)
  Janusz Cukras,               University of Warsaw,      Poland      (MChD in RESPONS)
  Paal Dahle,                  University of Oslo,        Norway      (Parallelization)
  Erik K. Dalskov,             UNI-C,                     Denmark     (SOPPA)
  Thomas Enevoldsen,           Univ. of Southern Denmark, Denmark     (SOPPA)
  Janus J. Eriksen,            Aarhus University,         Denmark     (Polarizable embedding, TDA)
  Rasmus Faber,                Technical Univ. of Denmark,Denmark     (Vib.avg. NMR w. SOPPA, parallel AO-SOPPA, CVS-CC and EOMCC)
  Tobias Fahleson,             KTH Stockholm,             Sweden      (Damped cubic response)
  Berta Fernandez,             U. of Santiago de CompostelSpain       (Doublet spin, ESR in RESPONS)
  Lara Ferrighi,               Aarhus University,         Denmark     (PCM Cubic response)
  Heike Fliegl,                University of Oslo,        Norway      (CCSD(R12))
  Luca Frediani,               UiT The Arctic U. of NorwayNorway      (PCM)
  Emmanuel Fromager,           Univ. Strasbourg,          France      (MC-srDFT)
  Bin Gao,                     UiT The Arctic U. of NorwayNorway      (Gen1Int library)
  Andre S. P. Gomes,           CNRS/Universite de Lille,  France      (Frozen density embedding)
  Christof Haettig,            Ruhr-University Bochum,    Germany     (CC module)
  Kasper Hald,                 Aarhus University,         Denmark     (CC module)
  Asger Halkier,               Aarhus University,         Denmark     (CC module)
  Frederik Beyer Hansen,       University of Copenhagen,  Denmark     (Parallel AO-SOPPA)
  Erik D. Hedegaard,           Univ. of Southern Denmark, Denmark     (Polarizable embedding, QM/MM, and MC-srDFT)
  Hanne Heiberg,               University of Oslo,        Norway      (Geometry analysis, selected one-electron integrals)
  Trygve Helgaker,             University of Oslo,        Norway      (DALTON; ABACUS, ERI, DFT modules, London, and much more)
  Alf Christian Hennum,        University of Oslo,        Norway      (Parity violation)
  Hinne Hettema,               University of Auckland,    New Zealand (Quadratic response in RESPONS; SIRIUS supersymmetry)
  Andreas E. Hillers-Bendtsen, University of Copenhagen,  Denmark     (MP3)
  Eirik Hjertenaes,            NTNU,                      Norway      (Cholesky decomposition)
  Nicolai Machholdt Hoeyer,    Aarhus University,         Denmark     (MP3)
  Pi A. B. Haase,              University of Copenhagen,  Denmark     (Triplet AO-SOPPA)
  Maria Francesca Iozzi,       University of Oslo,        Norway      (RPA)
  Christoph Jacob,             TU Braunschweig            Germany     (Frozen density embedding)
  Brano Jansik,                Technical Univ. of Ostrava Czech Rep.  (DFT cubic response)
  Hans Joergen Aa. Jensen,     Univ. of Southern Denmark, Denmark     (DALTON; SIRIUS, RESPONS, ABACUS, MC-srDFT, and much more)
  Dan Jonsson,                 UiT The Arctic U. of NorwayNorway      (Cubic response in RESPONS module)
  Poul Joergensen,             Aarhus University,         Denmark     (RESPONS, ABACUS, and CC modules)
  Maciej Kaminski,             University of Warsaw,      Poland      (CPPh in RESPONS)
  Joanna Kauczor,              Linkoeping University,     Sweden      (Complex polarization propagator (CPP) module)
  Sheela Kirpekar,             Univ. of Southern Denmark, Denmark     (Mass-velocity & Darwin integrals)
  Frederik Oersted Kjeldal,    Technical Univ. of Denmark,Denmark     (MP3)
  Erik Kjellgren,              Univ. of Southern Denmark, Denmark     (MC-srDFT)
  Wim Klopper,                 KIT Karlsruhe,             Germany     (R12 code in CC, SIRIUS, and ABACUS modules)
  Stefan Knecht,               ETH Zurich,                Switzerland (Parallel CI and MCSCF, MC-srDFT)
  Rika Kobayashi,              Australian National Univ., Australia   (DIIS in CC, London in MCSCF)
  Henrik Koch,                 NTNU,                      Norway      (CC module, Cholesky decomposition)
  Jacob Kongsted,              Univ. of Southern Denmark, Denmark     (Polarizable embedding, polarizable density embedding, QM/MM)
  Andrea Ligabue,              University of Modena,      Italy       (CTOCD, AOSOPPA)
  Nanna H. List,               Univ. of Southern Denmark, Denmark     (Polarizable embedding)
  Ola B. Lutnaes,              University of Oslo,        Norway      (DFT Hessian)
  Juan I. Melo,                University of Buenos Aires,Argentina   (LRESC, Relativistic Effects on NMR Shieldings)
  Kurt V. Mikkelsen,           University of Copenhagen,  Denmark     (MC-SCRF, QM/MM, and MP3)
  Rolf H. Myhre,               NTNU,                      Norway      (Subsystems and CC3)
  Christian Neiss,             Univ. Erlangen-Nuernberg,  Germany     (CCSD(R12))
  Christian B. Nielsen,        University of Copenhagen,  Denmark     (QM/MM)
  Patrick Norman,              KTH Stockholm,             Sweden      (Cubic response and complex frequency response in RESPONS)
  Jeppe Olsen,                 Aarhus University,         Denmark     (SIRIUS CI/density modules)
  Jogvan Magnus H. Olsen,      Aarhus University,         Denmark     (Polarizable embedding and polarizable density embedding)
  Anders Osted,                Copenhagen University,     Denmark     (QM/MM)
  Martin J. Packer,            University of Sheffield,   UK          (SOPPA)
  Filip Pawlowski,             Kazimierz Wielki UniversityPoland      (CC3)
  Morten N. Pedersen,          Univ. of Southern Denmark, Denmark     (Polarizable embedding)
  Thomas B. Pedersen,          University of Oslo,        Norway      (Cholesky decomposition)
  Patricio F. Provasi,         University of Northeastern,Argentina   (Analysis of coupling constants in localized orbitals)
  Peter Reinholdt,             Univ. of Southern Denmark, Denmark     (Polarizable embedding and polarizable density embedding)
  Zilvinas Rinkevicius,        KTH Stockholm,             Sweden      (open-shell DFT, ESR)
  Elias Rudberg,               KTH Stockholm,             Sweden      (DFT grid and basis info)
  Torgeir A. Ruden,            University of Oslo,        Norway      (Numerical derivatives in ABACUS)
  Kenneth Ruud,                UiT The Arctic U. of NorwayNorway      (DALTON; ABACUS magnetic properties and much more)
  Pawel Salek,                 KTH Stockholm,             Sweden      (DALTON; DFT code)
  Claire C. M. Samson,         University of Karlsruhe    Germany     (Boys localization, r12 integrals in ERI)
  Alfredo Sanchez de Meras,    University of Valencia,    Spain       (CC module, Cholesky decomposition)
  Trond Saue,                  Paul Sabatier University,  France      (direct Fock matrix construction)
  Stephan P. A. Sauer,         University of Copenhagen,  Denmark     (SOPPA(CCSD), SOPPA prop., AOSOPPA, vibrational g-factors)
  Bernd Schimmelpfennig,       Forschungszentrum KarlsruheGermany     (AMFI module)
  Anna K. Schnack-Petersen,    University of Copenhagen,  Denmark     (RPA(D) and HRPA(D) properties in AOSOPPA)
  Kristian Sneskov,            Aarhus University,         Denmark     (Polarizable embedding, QM/MM)
  Arnfinn H. Steindal,         UiT The Arctic U. of NorwayNorway      (parallel QM/MM, polarizable embedding)
  Casper Steinmann,            Aalborg University,        Denmark     (QFIT, polarizable embedding)
  K. O. Sylvester-Hvid,        University of Copenhagen,  Denmark     (MC-SCRF)
  Peter R. Taylor,             VLSCI/Univ. of Melbourne,  Australia   (Symmetry handling ABACUS, integral transformation)
  Andrew M. Teale,             University of Nottingham,  England     (DFT-AC, DFT-D)
  David P. Tew,                University of Bristol,     England     (CCSD(R12))
  Julien Toulouse,             Sorbonne Univ.,            France      (MC-srDFT)
  Olav Vahtras,                KTH Stockholm,             Sweden      (Triplet response, spin-orbit, ESR, TDDFT, open-shell DFT)
  Lucas Visscher,              Vrije Universiteit AmsterdaNetherlands (Frozen density embedding)
  David J. Wilson,             La Trobe University,       Australia   (DFT Hessian and DFT magnetizabilities)
  Luna Zamok,                  University of Copenhagen,  Denmark     (Block Lanczos RPA solver in SOPPA module)
  Hans Agren,                  KTH Stockholm,             Sweden      (SIRIUS module, RESPONS, MC-SCRF solvation)
 --------------------------------------------------------------------------------

     Date and time (Linux)  : Thu May 22 17:46:30 2025
     Host name              : s53n09.grendel.cscaa.dk                 

 * Work memory size             :  3932160000 = 29.297 gigabytes.

 * Directories for basis set searches:
   1) /home/jmikk/projects/article4/c6
   2) /home/jmikk/programs/dalton-oslo/build64/basis


Compilation information
-----------------------

 Who compiled             | jmikk
 Host                     | grendel
 System                   | Linux-4.18.0-513.18.1.el8_9.x86_64
 CMake generator          | Unix Makefiles
 Processor                | x86_64
 64-bit integers          | ON
 MPI                      | OFF
 Fortran compiler         | /comm/swstack/core/gcc/11.2.0/bin/gfortran
 Fortran compiler version | GNU Fortran (GCC) 11.2.0
 C compiler               | /comm/swstack/core/gcc/11.2.0/bin/gcc
 C compiler version       | gcc (GCC) 11.2.0
 C++ compiler             | /comm/swstack/core/gcc/11.2.0/bin/g++
 C++ compiler version     | g++ (GCC) 11.2.0
 Static linking           | OFF
 Last Git revision        | 082d2ff11a6851740f25fd48efdf99ad0c6d6e99
 Git branch               | crk-oslo
 Configuration time       | 2025-05-22 17:05:55.009016

 * Sequential calculation.


   Content of the .dal input file
 ----------------------------------

**DALTON INPUT
.RUN WAVE FUNCTIONS
**INTEGRALS
.DIPLEN
**WAVE FUNCTIONS
.CC
!*HAMILTONIAN
!.FIELD TERM
!0.0001
!XDIPLEN
*CC INPUT
.CCSD
!.FIELD
!0.0001
!YDIPLEN
!*CCFOP
!.DIPMOM
*CCLR
!.RELAXED
.ATMMOM
 1
!.FREQUE
! 2
! 0 0.5
.DISPCF
 40
!.SELATM
! 1
! 2
!.PRINT
! 200
**END OF DALTON INPUT


   Content of the .mol file
 ----------------------------

BASIS
pcseg-1
Water (H2O)
Property calculated with xxx/pcseg-1. Geo opt with wB97x/pcseg-1.
Atomtypes=2 NoSymmetry Angstrom
Charge=8.0 Atoms=1
O   0.000000  0.000000  0.118534
Charge=1.0 Atoms=2
H1  0.000000  0.759623 -0.474135
H2  0.000000 -0.759623 -0.474135



       *******************************************************************
       *********** Output from DALTON general input processing ***********
       *******************************************************************

 --------------------------------------------------------------------------------
   Overall default print level:    0
   Print level for DALTON.STAT:    1

    HERMIT 1- and 2-electron integral sections will be executed
    "Old" integral transformation used (limited to max 255 basis functions)
    Wave function sections will be executed (SIRIUS module)
 --------------------------------------------------------------------------------


   ****************************************************************************
   *************** Output of molecule and basis set information ***************
   ****************************************************************************


    The two title cards from your ".mol" input:
    --------------------------------------------------------------------------------
 1: Water (H2O)
 2: Property calculated with xxx/pcseg-1. Geo opt with wB97x/pcseg-1.
    --------------------------------------------------------------------------------

  Coordinates are entered in Angstrom and converted to atomic units.
          - Conversion factor : 1 bohr = 0.52917721 A

  Atomic type no.    1
  --------------------
  Nuclear charge:   8.00000
  Number of symmetry independent centers:    1
  Number of basis sets to read;    2
  Basis set file used for this atomic type with Z =   8 :
     "/home/jmikk/programs/dalton-oslo/build64/basis/pcseg-1"

  Info about the basis set file: your basis has no documentation.
  Basis set: pcseg-1                                                                         

  Atomic type no.    2
  --------------------
  Nuclear charge:   1.00000
  Number of symmetry independent centers:    2
  Number of basis sets to read;    2
  Basis set file used for this atomic type with Z =   1 :
     "/home/jmikk/programs/dalton-oslo/build64/basis/pcseg-1"

  Info about the basis set file: your basis has no documentation.
  Basis set: pcseg-1                                                                         


                         SYMGRP: Point group information
                         -------------------------------

@    Point group: C1 


                                 Isotopic Masses
                                 ---------------

                           O          15.994915
                           H1          1.007825
                           H2          1.007825

                       Total mass:    18.010565 amu
                       Natural abundance:  99.730 %

 Center-of-mass coordinates (a.u.):    0.000000    0.000000    0.098654
 Center-of-mass coordinates (Angs):    0.000000    0.000000    0.052206


  Atoms and basis sets
  --------------------

  Number of atom types :    2
  Total number of atoms:    3

  Basis set used is "pcseg-1" from the basis set library.

  label    atoms   charge   prim   cont     basis
  ----------------------------------------------------------------------
  O           1    8.0000    25    14      [8s4p1d|3s2p1d]                                    
  H2          2    1.0000     7     5      [4s1p|2s1p]                                        
  ----------------------------------------------------------------------
  total:      3   10.0000    39    24
  ----------------------------------------------------------------------
  Spherical harmonic basis used.

  Threshold for neglecting AO integrals:  1.00D-12


  Cartesian Coordinates (a.u.)
  ----------------------------

  Total number of coordinates:    9
  O       :     1  x   0.0000000000    2  y   0.0000000000    3  z   0.2239967965
  H1      :     4  x   0.0000000000    5  y   1.4354794282    6  z  -0.8959852963
  H2      :     7  x   0.0000000000    8  y  -1.4354794282    9  z  -0.8959852963


   Interatomic separations (in Angstrom):
   --------------------------------------

            O           H1          H2    
            ------      ------      ------
 O     :    0.000000
 H1    :    0.963475    0.000000
 H2    :    0.963475    1.519246    0.000000


  Max    interatomic separation is    1.5192 Angstrom (    2.8710 Bohr)
  between atoms    3 and    2, "H2    " and "H1    ".

  Min HX interatomic separation is    0.9635 Angstrom (    1.8207 Bohr)


  Bond distances (Angstrom):
  --------------------------

                  atom 1     atom 2       distance
                  ------     ------       --------
  bond distance:  H1         O            0.963475
  bond distance:  H2         O            0.963475


  Bond angles (degrees):
  ----------------------

                  atom 1     atom 2     atom 3         angle
                  ------     ------     ------         -----
  bond angle:     H1         O          H2           104.076




 Principal moments of inertia (u*A**2) and principal axes
 --------------------------------------------------------

   IA       0.628773          0.000000    1.000000    0.000000
   IB       1.163085          0.000000    0.000000    1.000000
   IC       1.791858          1.000000    0.000000    0.000000


 Rotational constants
 --------------------

@    The molecule is planar.

               A                   B                   C

         803753.8221         434516.0894         282041.8750 MHz
           26.810342           14.493897            9.407904 cm-1


@  Nuclear repulsion energy :    9.136127857887 Hartree


                     .---------------------------------------.
                     | Starting in Integral Section (HERMIT) |
                     `---------------------------------------'



 ***************************************************************************************
 ****************** Output from **INTEGRALS input processing (HERMIT) ******************
 ***************************************************************************************



    *************************************************************************
    ****************** Output from HERMIT input processing ******************
    *************************************************************************


 Default print level:        1

 Calculation of one- and two-electron Hamiltonian integrals.

 The following one-electron property integrals are calculated as requested:
          - overlap integrals
          - dipole length integrals

 Center of mass  (bohr):      0.000000000000      0.000000000000      0.098654148710
 Operator center (bohr):      0.000000000000      0.000000000000      0.000000000000
 Gauge origin    (bohr):      0.000000000000      0.000000000000      0.000000000000
 Dipole origin   (bohr):      0.000000000000      0.000000000000      0.000000000000

Calculation of 2-electron integrals are postponed until they are needed.


     ************************************************************************
     ************************** Output from HERINT **************************
     ************************************************************************



                      Nuclear contribution to dipole moments
                      --------------------------------------

                 au               Debye          C m (/(10**-30)

      x      0.00000000         0.00000000         0.00000000
      y      0.00000000         0.00000000         0.00000000
      z      0.00000378         0.00000961         0.00003204


  Total CPU  time used in HERMIT:   0.01 seconds
  Total wall time used in HERMIT:   0.20 seconds


                        .----------------------------------.
                        | End of Integral Section (HERMIT) |
                        `----------------------------------'



                   .--------------------------------------------.
                   | Starting in Wave Function Section (SIRIUS) |
                   `--------------------------------------------'

 ntot                  144                   12                   12

 *** Output from Huckel module :

     Using EWMO model:          T
     Using EHT  model:          F
     Number of Huckel orbitals each symmetry:    7

 EWMO - Energy Weighted Maximum Overlap - is a Huckel type method,
        which normally is better than Extended Huckel Theory.
 Reference: Linderberg and Ohrn, Propagators in Quantum Chemistry (Wiley, 1973)

 Huckel EWMO eigenvalues for symmetry :  1
          -20.684868      -1.607823      -0.777199      -0.689369      -0.616200
           -0.234224      -0.170216

 **********************************************************************
 *SIRIUS* a direct, restricted step, second order MCSCF program       *
 **********************************************************************

 
     Date and time (Linux)  : Thu May 22 17:46:30 2025
     Host name              : s53n09.grendel.cscaa.dk                 

 Title lines from ".mol" input file:
     Water (H2O)
     Property calculated with xxx/pcseg-1. Geo opt with wB97x/pcseg-1.

 Print level on unit LUPRI =   2 is   0
 Print level on unit LUW4  =   2 is   5

@    (Integral direct) CC calculation.

@    This is a combination run starting with
@              a restricted, closed shell Hartree-Fock calculation


 Initial molecular orbitals are obtained according to
 ".MOSTART EWMO  " input option

     Wave function specification
     ============================

     For the specification of the Coupled Cluster: see below.

@    Wave function type        --- CC ---
@    Number of closed shell electrons          10
@    Number of electrons in active shells       0
@    Total charge of the molecule               0

@    Spin multiplicity and 2 M_S                1         0
@    Total number of symmetries                 1 (point group: C1 )
@    Reference state symmetry                   1 (irrep name : A  )

     Orbital specifications
     ======================
@    Abelian symmetry species          All |    1
@                                          |  A  
                                       --- |  ---
@    Occupied SCF orbitals               5 |    5
@    Secondary orbitals                 19 |   19
@    Total number of orbitals           24 |   24
@    Number of basis functions          24 |   24

     Optimization information
     ========================
@    Number of configurations                 1
@    Number of orbital rotations             95
     ------------------------------------------
@    Total number of variables               96

     Maximum number of Fock   iterations      0
     Maximum number of DIIS   iterations     60
     Maximum number of QC-SCF iterations     60
     Threshold for SCF convergence     1.00D-06


 Changes of defaults for CC:
 ---------------------------

 -Linear response properties calculated
 -Dispersion coefficients for linear response calc.
 -Dipole moment calculated
  


 ***********************************************
 ***** DIIS acceleration of SCF iterations *****
 ***********************************************

 C1-DIIS algorithm; max error vectors =    8

 Iter      Total energy        Error norm    Delta(E)  DIIS dim.
 -----------------------------------------------------------------------------

Calculating AOSUPINT

---> (Re)generating AOTWOINT


     ************************************************************************
     ************************** Output from HERINT **************************
     ************************************************************************


 Threshold for neglecting two-electron integrals:  1.00D-12
 HERMIT - Number of two-electron integrals written:       21643 ( 47.9% )
 HERMIT - Megabytes written:                              0.275

     (Precalculated AO two-electron integrals are transformed to P-supermatrix elements.
      Threshold for discarding integrals :  1.00D-12 )

@  1    -75.8284422367        1.64553D+00   -7.58D+01    1
      Virial theorem: -V/T =      1.995614
@    MULPOP   O      -0.61; H1      0.31; H2      0.31; 
   1  Level shift: doubly occupied orbital energies shifted by -2.00D-01
 -----------------------------------------------------------------------------
@  2    -75.9926364684        3.42749D-01   -1.64D-01    2
      Virial theorem: -V/T =      2.001343
@    MULPOP   O      -0.42; H1      0.21; H2      0.21; 
   2  Level shift: doubly occupied orbital energies shifted by -5.00D-02
 -----------------------------------------------------------------------------
@  3    -76.0022620374        1.02461D-01   -9.63D-03    3
      Virial theorem: -V/T =      1.998041
@    MULPOP   O      -0.46; H1      0.23; H2      0.23; 
   3  Level shift: doubly occupied orbital energies shifted by -2.50D-02
 -----------------------------------------------------------------------------
@  4    -76.0031882321        4.41230D-02   -9.26D-04    4
      Virial theorem: -V/T =      1.999791
@    MULPOP   O      -0.46; H1      0.23; H2      0.23; 
   4  Level shift: doubly occupied orbital energies shifted by -1.25D-02
 -----------------------------------------------------------------------------
@  5    -76.0033039145        7.36134D-03   -1.16D-04    5
      Virial theorem: -V/T =      1.998976
@    MULPOP   O      -0.47; H1      0.23; H2      0.23; 
 -----------------------------------------------------------------------------
@  6    -76.0033130967        1.86756D-03   -9.18D-06    6
      Virial theorem: -V/T =      1.999033
@    MULPOP   O      -0.47; H1      0.23; H2      0.23; 
 -----------------------------------------------------------------------------
@  7    -76.0033136765        2.08232D-04   -5.80D-07    7
      Virial theorem: -V/T =      1.999057
@    MULPOP   O      -0.47; H1      0.23; H2      0.23; 
 -----------------------------------------------------------------------------
@  8    -76.0033136827        3.93307D-05   -6.21D-09    8
      Virial theorem: -V/T =      1.999056
@    MULPOP   O      -0.47; H1      0.23; H2      0.23; 
 -----------------------------------------------------------------------------
@  9    -76.0033136829        5.62382D-06   -2.11D-10    8
      Virial theorem: -V/T =      1.999057
@    MULPOP   O      -0.47; H1      0.23; H2      0.23; 
 -----------------------------------------------------------------------------
@ 10    -76.0033136829        6.26471D-07   -4.21D-12    8

@ *** DIIS converged in  10 iterations !
@     Converged SCF energy, gradient:    -76.003313682931    6.26D-07
    - total time used in SIRFCK :              0.00 seconds


 *** SCF orbital energy analysis ***

 Number of electrons        :   10
 Closed shell orbitals      :    5

 Sym       Hartree-Fock orbital energies

1 A     -20.54336654    -1.34684033    -0.70850732    -0.57855309    -0.50433434
          0.15799480     0.22040188     0.76311027     0.85651507     1.05765278
          1.06705502     1.15999289     1.63504469     1.84851587     1.90086885
          2.03918060     2.38334932     2.73266940     2.74429122     3.05072426
          3.10085117     3.38426270     3.74836888     3.96425620

    E(LUMO) :     0.15799480 au (symmetry 1)
  - E(HOMO) :    -0.50433434 au (symmetry 1)
  ------------------------------------------
    gap     :     0.66232914 au

 --- Writing SIRIFC interface file

--------------------------------------------------------------------------------


     .--------------------------------------------------.
     | HF-SCF KT IPs [a.u. & eV] from Koopmans' theorem |
     `--------------------------------------------------'


     HF-SCF KT symmetry 1 ( A  ) in point group C1  -- 5 principal poles with pole strength 1

   ============  ============  ============  ============  ============
      20.543367      1.346840      0.708507      0.578553      0.504334
     559.013440     36.649390     19.279465     15.743230     13.723636
   ============  ============  ============  ============  ============

@ Summary of HF-SCF KT ionization potentials [eV]:

@ Symmetry 1 (A  ) :   559.013      36.649      19.279      15.743      13.724

  === End of HF-SCF KT output ===
--------------------------------------------------------------------------------


 CPU and wall time for SCF :       0.016       0.108


                       .-----------------------------------.
                       | --- Final results from SIRIUS --- |
                       `-----------------------------------'


@    Spin multiplicity:           1
@    Spatial symmetry:            1 ( irrep  A   in C1  )
@    Total charge of molecule:    0

@    Final HF energy:             -76.003313682931                 
@    Nuclear repulsion:             9.136127857887
@    Electronic energy:           -85.139441540818

@    Final gradient norm:           0.000000626471

 
     Date and time (Linux)  : Thu May 22 17:46:31 2025
     Host name              : s53n09.grendel.cscaa.dk                 

File label for MO orbitals:  22May25   FOCKDIIS

 (Only coefficients > 0.0100 are printed.)

 Molecular orbitals for symmetry species 1  (A  )
 ------------------------------------------------

    Orbital         1        2        3        4        5        6        7
   1 O   :1s    -0.9942   0.2287   0.0000   0.0763   0.0000   0.0815  -0.0000
   2 O   :1s    -0.0255  -0.4715  -0.0000  -0.1659  -0.0000  -0.0863   0.0000
   3 O   :1s     0.0058  -0.3869  -0.0000  -0.3160  -0.0000  -0.8917  -0.0000
   4 O   :2px   -0.0000  -0.0000   0.0000  -0.0000   0.6495  -0.0000  -0.0000
   5 O   :2py    0.0000  -0.0000  -0.5057   0.0000  -0.0000  -0.0000  -0.2618
   6 O   :2pz    0.0021   0.0822  -0.0000  -0.5606  -0.0000   0.1804  -0.0000
   7 O   :2px   -0.0000  -0.0000   0.0000  -0.0000   0.4980  -0.0000  -0.0000
   8 O   :2py    0.0000  -0.0000  -0.2438   0.0000  -0.0000   0.0000  -0.6242
   9 O   :2pz   -0.0005  -0.0017   0.0000  -0.3723  -0.0000   0.2814   0.0000
  11 O   :3d1-  -0.0000   0.0000   0.0262  -0.0000  -0.0000  -0.0000   0.0150
  12 O   :3d0   -0.0001  -0.0018   0.0000   0.0217   0.0000  -0.0070   0.0000
  13 O   :3d1+   0.0000   0.0000  -0.0000   0.0000  -0.0219   0.0000   0.0000
  15 H1  :1s     0.0007  -0.1864  -0.3286   0.2072   0.0000   0.0529   0.0293
  16 H1  :1s    -0.0009   0.0030  -0.0465   0.0255   0.0000   0.7866   1.5025
  17 H1  :2px    0.0000   0.0000  -0.0000   0.0000   0.0245   0.0000   0.0000
  18 H1  :2py   -0.0010   0.0294   0.0190  -0.0261  -0.0000   0.0017  -0.0009
  19 H1  :2pz    0.0008  -0.0173  -0.0267  -0.0031   0.0000   0.0022   0.0004
  20 H2  :1s     0.0007  -0.1864   0.3286   0.2072   0.0000   0.0529  -0.0293
  21 H2  :1s    -0.0009   0.0030   0.0465   0.0255   0.0000   0.7866  -1.5025
  22 H2  :2px    0.0000   0.0000  -0.0000   0.0000   0.0245   0.0000   0.0000
  23 H2  :2py    0.0010  -0.0294   0.0190   0.0261   0.0000  -0.0017  -0.0009
  24 H2  :2pz    0.0008  -0.0173   0.0267  -0.0031   0.0000   0.0022  -0.0004

    Orbital         8        9       10       11       12       13       14
   1 O   :1s    -0.0000  -0.0749   0.0582  -0.0000   0.0000  -0.0937  -0.0000
   2 O   :1s    -0.0000   0.3385  -0.1611   0.0000  -0.0000   1.4594   0.0000
   3 O   :1s     0.0000  -0.0484  -0.4896   0.0000  -0.0000  -2.3026  -0.0000
   4 O   :2px   -0.0000   0.0000  -0.0000  -0.9246   0.0000   0.0000   0.0000
   5 O   :2py   -0.2982   0.0000  -0.0000   0.0000   0.7902   0.0000   0.0000
   6 O   :2pz   -0.0000  -0.3893  -0.7703   0.0000   0.0000   0.0386   0.0000
   7 O   :2px   -0.0000   0.0000  -0.0000   1.0221   0.0000   0.0000   0.0000
   8 O   :2py   -0.6401   0.0000   0.0000   0.0000  -1.6648  -0.0000  -0.0000
   9 O   :2pz   -0.0000  -0.1780   1.3266   0.0000   0.0000   0.3252  -0.0000
  10 O   :3d2-   0.0000   0.0000  -0.0000   0.0000  -0.0000   0.0000   0.4020
  11 O   :3d1-  -0.1269  -0.0000   0.0000   0.0000   0.0736  -0.0000   0.0000
  12 O   :3d0   -0.0000  -0.0002  -0.0079  -0.0000  -0.0000  -0.1210  -0.0000
  14 O   :3d2+  -0.0000   0.1298  -0.0074  -0.0000   0.0000  -0.1232   0.0000
  15 H1  :1s     0.9609  -0.8884   0.5153  -0.0000   0.3036   0.4076  -0.0000
  16 H1  :1s    -0.5164   0.4611   0.0562  -0.0000   0.8178   0.3454   0.0000
  17 H1  :2px    0.0000  -0.0000   0.0000  -0.0210  -0.0000  -0.0000   0.5505
  18 H1  :2py    0.0438  -0.1638  -0.0741   0.0000  -0.1639   0.0429   0.0000
  19 H1  :2pz   -0.0894   0.0490   0.0746  -0.0000   0.1248   0.2926  -0.0000
  20 H2  :1s    -0.9609  -0.8884   0.5153  -0.0000  -0.3036   0.4076  -0.0000
  21 H2  :1s     0.5164   0.4611   0.0562  -0.0000  -0.8178   0.3454   0.0000
  22 H2  :2px    0.0000  -0.0000   0.0000  -0.0210  -0.0000  -0.0000  -0.5505
  23 H2  :2py    0.0438   0.1638   0.0741  -0.0000  -0.1639  -0.0429  -0.0000
  24 H2  :2pz    0.0894   0.0490   0.0746  -0.0000  -0.1248   0.2926  -0.0000

    Orbital        15
   1 O   :1s     0.0350
   2 O   :1s    -0.8109
   3 O   :1s     1.4873
   6 O   :2pz   -0.0689
   9 O   :2pz   -0.6943
  12 O   :3d0   -0.4243
  14 O   :3d2+   0.0142
  15 H1  :1s    -0.5274
  16 H1  :1s    -0.1439
  18 H1  :2py    0.3275
  19 H1  :2pz    0.3361
  20 H2  :1s    -0.5274
  21 H2  :1s    -0.1439
  23 H2  :2py   -0.3275
  24 H2  :2pz    0.3361

  Total CPU  time used in SIRIUS :   0.02 seconds
  Total wall time used in SIRIUS :   0.11 seconds

 
     Date and time (Linux)  : Thu May 22 17:46:31 2025
     Host name              : s53n09.grendel.cscaa.dk                 


                     .---------------------------------------.
                     | End of Wave Function Section (SIRIUS) |
                     `---------------------------------------'



                    .------------------------------------------.
                    | Starting in Coupled Cluster Section (CC) |
                    `------------------------------------------'

  

 *******************************************************************************
 *******************************************************************************
 *                                                                             *
 *                                                                             *
 *                    START OF COUPLED CLUSTER CALCULATION                     *
 *                                                                             *
 *                                                                             *
 *******************************************************************************
 *******************************************************************************



 CCR12 ANSATZ =   0

 CCR12 APPROX =   0

   

 *******************************************************************
 *                                                                 *
 *----------                                             >---------*
 *---------- OUTPUT FROM COUPLED CLUSTER ENERGY PROGRAM  >---------*
 *----------                                             >---------*
 *                                                                 *
 *******************************************************************


             The Direct Coupled Cluster Energy Program
             -----------------------------------------


          Number of t1 amplitudes                 :        95
          Number of t2 amplitudes                 :      4560
          Total number of amplitudes in ccsd      :      4655

 Iter.  1: Coupled cluster MP2   energy :     -76.2086165798504993
 Iter.  1: Coupled cluster CCSD  energy :     -76.2120220319945645
 Iter.  2: Coupled cluster CCSD  energy :     -76.2159794408421476
 Iter.  3: Coupled cluster CCSD  energy :     -76.2165354981045766
 Iter.  4: Coupled cluster CCSD  energy :     -76.2165475884374786
 Iter.  5: Coupled cluster CCSD  energy :     -76.2165635790721296
 Iter.  6: Coupled cluster CCSD  energy :     -76.2165625036328009
 Iter.  7: Coupled cluster CCSD  energy :     -76.2165618519977528
 Iter.  8: Coupled cluster CCSD  energy :     -76.2165618015348372
 Iter.  9: Coupled cluster CCSD  energy :     -76.2165617488689122
 Iter. 10: Coupled cluster CCSD  energy :     -76.2165617307617538
 Iter. 11: Coupled cluster CCSD  energy :     -76.2165617252133387

 CCSD  energy converged to within   0.10D-07 is          -76.216561725213
 Final 2-norm of the CC vector function:  1.20068040D-07





             +-------------------------------------------------------+
             ! Final results from the Coupled Cluster energy program !
             +-------------------------------------------------------+



            Total SCF   energy:                   -76.0033136829

            Total MP2   energy:                   -76.2086165799

            Total CCSD  energy:                   -76.2165617252




                   +--------------------------------------------+
                   ! Calculating singlet intermediates for CCLR !
                   +--------------------------------------------+



            E-intermediates calculated 
            Fock-intermediate calculated 
            Gamma-intermediate calculated 
            BF-intermediate calculated 
            C-intermediate calculated 
            D-intermediate calculated 


   

 *******************************************************************
 *                                                                 *
 *---- OUTPUT FROM COUPLED CLUSTER RESPONSE  -------------*
 *                                                                 *
 *******************************************************************



                         +--------------------------------+
                         ! Coupled Cluster model is: CCSD !
                         +--------------------------------+



                            +--------------------------+
                            ! CCSD Natural Occupations !
                            +--------------------------+

  
   Symmetry block number:  1
   ---------------------
  
   1.99992175   1.98393647   1.97135981   1.96619657   1.96415210
   0.02717768   0.02528729   0.01884346   0.01239116   0.00589923
   0.00552121   0.00500764   0.00452992   0.00448031   0.00109810
   0.00108444   0.00062118   0.00057109   0.00056649   0.00047194
   0.00043758   0.00034429   0.00005860   0.00004167
  
   Sum in this symmetry class:  10.000000
  
  
   Total Sum of natural occupation numbers:  10.000000
  
   Dynamical correlation move: 0.114433 electrons
  


             +--------------------------------------------------------+
             ! Unrelaxed CCSD    First-order one-electron properties: !
             +--------------------------------------------------------+



                            +-------------------------+
                            !  Electric Dipole Moment !
                            +-------------------------+



                          Total Molecular Dipole Moment
                          -----------------------------

                 au               Debye          C m (/(10**-30)

      x      0.00000000         0.00000000         0.00000000
      y      0.00000000         0.00000000         0.00000000
      z     -0.82586878        -2.09914893        -7.00200715


  CPU  time used in dftint     is   0.16 seconds
  WALL time used in dftint     is   0.16 seconds
  grid points, tot elec.
     63042        9.9999996476
  
  MBIS converged!
  
  Final converged results
  Qatom
    1    -0.84204567
    2     0.42102304
    3     0.42102304
  CPU  time used in mbis       is   0.77 seconds
  WALL time used in mbis       is   0.77 seconds
  CPU  time used in num_aoint_opt is   0.21 seconds
  WALL time used in num_aoint_opt is   0.37 seconds
     

   *******************************************************************
   *                                                                 *
   *--------   OUTPUT FROM PROPERTY AND SYMMETRY ANALYSIS   ---------*
   *                                                                 *
   *******************************************************************



                         +-------------------------------+
                         ! REQUESTED PROPERTY OPERATORS: !
                         +-------------------------------+

             Index   Oper. Label  Symmetry  Transp.  PDBS  Atom
             --------------------------------------------------
                1     AM010800        1        1      F      0
                2     AM01080x        1        1      F      0
                3     AM01080y        1        1      F      0
                4     AM01080z        1        1      F      0
                5     AM020100        1        1      F      0
                6     AM02010x        1        1      F      0
                7     AM02010y        1        1      F      0
                8     AM02010z        1        1      F      0
                9     AM030100        1        1      F      0
               10     AM03010x        1        1      F      0
               11     AM03010y        1        1      F      0
               12     AM03010z        1        1      F      0
               13     HAM0            1        1      T      0
             --------------------------------------------------




                         +-------------------------------+
                         ! REQUESTED EXPECTATION VALUES: !
                         +-------------------------------+

                       Index   Oper. Label  Symmetry
                       -----------------------------
                       -----------------------------




                       +------------------------------------+
                       ! REQUESTED EFFECTIVE FOCK MATRICES: !
                       +------------------------------------+

                       Index   Oper. Label  Symmetry
                       -----------------------------
                       -----------------------------




                       +-----------------------------------+
                       ! REQUESTED FIRST ORDER XI VECTORS: !
                       +-----------------------------------+

             Index   Oper. Label  relaxed  Sym.     Frequency
             --------------------------------------------------
                1      AM010800       F     1      0.000000D+00
                2      AM01080x       F     1      0.000000D+00
                3      AM01080y       F     1      0.000000D+00
                4      AM01080z       F     1      0.000000D+00
                5      AM020100       F     1      0.000000D+00
                6      AM02010x       F     1      0.000000D+00
                7      AM02010y       F     1      0.000000D+00
                8      AM02010z       F     1      0.000000D+00
                9      AM030100       F     1      0.000000D+00
               10      AM03010x       F     1      0.000000D+00
               11      AM03010y       F     1      0.000000D+00
               12      AM03010z       F     1      0.000000D+00
             --------------------------------------------------




                        +----------------------------------+
                        ! REQUESTED FIRST ORDER T VECTORS: !
                        +----------------------------------+

             Index   Oper. Label  relaxed  Sym.     Frequency
             --------------------------------------------------
                1      AM010800       F     1      0.000000D+00
                2      AM01080x       F     1      0.000000D+00
                3      AM01080y       F     1      0.000000D+00
                4      AM01080z       F     1      0.000000D+00
                5      AM020100       F     1      0.000000D+00
                6      AM02010x       F     1      0.000000D+00
                7      AM02010y       F     1      0.000000D+00
                8      AM02010z       F     1      0.000000D+00
                9      AM030100       F     1      0.000000D+00
               10      AM03010x       F     1      0.000000D+00
               11      AM03010y       F     1      0.000000D+00
               12      AM03010z       F     1      0.000000D+00
             --------------------------------------------------




                  +---------------------------------------------+
                  ! REQUESTED FIRST-ORDER RIGHT CAUCHY VECTORS: !
                  +---------------------------------------------+

               Index   Oper. Label  Symmetry  Cauchy Order
               --------------------------------------------------
                  1      AM010800    1      1
                  2      AM01080x    1      1
                  3      AM01080y    1      1
                  4      AM01080z    1      1
                  5      AM020100    1      1
                  6      AM02010x    1      1
                  7      AM02010y    1      1
                  8      AM02010z    1      1
                  9      AM030100    1      1
                 10      AM03010x    1      1
                 11      AM03010y    1      1
                 12      AM03010z    1      1
                 13      AM010800    1      2
                 14      AM01080x    1      2
                 15      AM01080y    1      2
                 16      AM01080z    1      2
                 17      AM020100    1      2
                 18      AM02010x    1      2
                 19      AM02010y    1      2
                 20      AM02010z    1      2
                 21      AM030100    1      2
                 22      AM03010x    1      2
                 23      AM03010y    1      2
                 24      AM03010z    1      2
                 25      AM010800    1      3
                 26      AM01080x    1      3
                 27      AM01080y    1      3
                 28      AM01080z    1      3
                 29      AM020100    1      3
                 30      AM02010x    1      3
                 31      AM02010y    1      3
                 32      AM02010z    1      3
                 33      AM030100    1      3
                 34      AM03010x    1      3
                 35      AM03010y    1      3
                 36      AM03010z    1      3
                 37      AM010800    1      4
                 38      AM01080x    1      4
                 39      AM01080y    1      4
                 40      AM01080z    1      4
                 41      AM020100    1      4
                 42      AM02010x    1      4
                 43      AM02010y    1      4
                 44      AM02010z    1      4
                 45      AM030100    1      4
                 46      AM03010x    1      4
                 47      AM03010y    1      4
                 48      AM03010z    1      4
                 49      AM010800    1      5
                 50      AM01080x    1      5
                 51      AM01080y    1      5
                 52      AM01080z    1      5
                 53      AM020100    1      5
                 54      AM02010x    1      5
                 55      AM02010y    1      5
                 56      AM02010z    1      5
                 57      AM030100    1      5
                 58      AM03010x    1      5
                 59      AM03010y    1      5
                 60      AM03010z    1      5
                 61      AM010800    1      6
                 62      AM01080x    1      6
                 63      AM01080y    1      6
                 64      AM01080z    1      6
                 65      AM020100    1      6
                 66      AM02010x    1      6
                 67      AM02010y    1      6
                 68      AM02010z    1      6
                 69      AM030100    1      6
                 70      AM03010x    1      6
                 71      AM03010y    1      6
                 72      AM03010z    1      6
                 73      AM010800    1      7
                 74      AM01080x    1      7
                 75      AM01080y    1      7
                 76      AM01080z    1      7
                 77      AM020100    1      7
                 78      AM02010x    1      7
                 79      AM02010y    1      7
                 80      AM02010z    1      7
                 81      AM030100    1      7
                 82      AM03010x    1      7
                 83      AM03010y    1      7
                 84      AM03010z    1      7
                 85      AM010800    1      8
                 86      AM01080x    1      8
                 87      AM01080y    1      8
                 88      AM01080z    1      8
                 89      AM020100    1      8
                 90      AM02010x    1      8
                 91      AM02010y    1      8
                 92      AM02010z    1      8
                 93      AM030100    1      8
                 94      AM03010x    1      8
                 95      AM03010y    1      8
                 96      AM03010z    1      8
                 97      AM010800    1      9
                 98      AM01080x    1      9
                 99      AM01080y    1      9
                100      AM01080z    1      9
                101      AM020100    1      9
                102      AM02010x    1      9
                103      AM02010y    1      9
                104      AM02010z    1      9
                105      AM030100    1      9
                106      AM03010x    1      9
                107      AM03010y    1      9
                108      AM03010z    1      9
                109      AM010800    1     10
                110      AM01080x    1     10
                111      AM01080y    1     10
                112      AM01080z    1     10
                113      AM020100    1     10
                114      AM02010x    1     10
                115      AM02010y    1     10
                116      AM02010z    1     10
                117      AM030100    1     10
                118      AM03010x    1     10
                119      AM03010y    1     10
                120      AM03010z    1     10
                121      AM010800    1     11
                122      AM01080x    1     11
                123      AM01080y    1     11
                124      AM01080z    1     11
                125      AM020100    1     11
                126      AM02010x    1     11
                127      AM02010y    1     11
                128      AM02010z    1     11
                129      AM030100    1     11
                130      AM03010x    1     11
                131      AM03010y    1     11
                132      AM03010z    1     11
                133      AM010800    1     12
                134      AM01080x    1     12
                135      AM01080y    1     12
                136      AM01080z    1     12
                137      AM020100    1     12
                138      AM02010x    1     12
                139      AM02010y    1     12
                140      AM02010z    1     12
                141      AM030100    1     12
                142      AM03010x    1     12
                143      AM03010y    1     12
                144      AM03010z    1     12
                145      AM010800    1     13
                146      AM01080x    1     13
                147      AM01080y    1     13
                148      AM01080z    1     13
                149      AM020100    1     13
                150      AM02010x    1     13
                151      AM02010y    1     13
                152      AM02010z    1     13
                153      AM030100    1     13
                154      AM03010x    1     13
                155      AM03010y    1     13
                156      AM03010z    1     13
                157      AM010800    1     14
                158      AM01080x    1     14
                159      AM01080y    1     14
                160      AM01080z    1     14
                161      AM020100    1     14
                162      AM02010x    1     14
                163      AM02010y    1     14
                164      AM02010z    1     14
                165      AM030100    1     14
                166      AM03010x    1     14
                167      AM03010y    1     14
                168      AM03010z    1     14
                169      AM010800    1     15
                170      AM01080x    1     15
                171      AM01080y    1     15
                172      AM01080z    1     15
                173      AM020100    1     15
                174      AM02010x    1     15
                175      AM02010y    1     15
                176      AM02010z    1     15
                177      AM030100    1     15
                178      AM03010x    1     15
                179      AM03010y    1     15
                180      AM03010z    1     15
                181      AM010800    1     16
                182      AM01080x    1     16
                183      AM01080y    1     16
                184      AM01080z    1     16
                185      AM020100    1     16
                186      AM02010x    1     16
                187      AM02010y    1     16
                188      AM02010z    1     16
                189      AM030100    1     16
                190      AM03010x    1     16
                191      AM03010y    1     16
                192      AM03010z    1     16
                193      AM010800    1     17
                194      AM01080x    1     17
                195      AM01080y    1     17
                196      AM01080z    1     17
                197      AM020100    1     17
                198      AM02010x    1     17
                199      AM02010y    1     17
                200      AM02010z    1     17
                201      AM030100    1     17
                202      AM03010x    1     17
                203      AM03010y    1     17
                204      AM03010z    1     17
                205      AM010800    1     18
                206      AM01080x    1     18
                207      AM01080y    1     18
                208      AM01080z    1     18
                209      AM020100    1     18
                210      AM02010x    1     18
                211      AM02010y    1     18
                212      AM02010z    1     18
                213      AM030100    1     18
                214      AM03010x    1     18
                215      AM03010y    1     18
                216      AM03010z    1     18
                217      AM010800    1     19
                218      AM01080x    1     19
                219      AM01080y    1     19
                220      AM01080z    1     19
                221      AM020100    1     19
                222      AM02010x    1     19
                223      AM02010y    1     19
                224      AM02010z    1     19
                225      AM030100    1     19
                226      AM03010x    1     19
                227      AM03010y    1     19
                228      AM03010z    1     19
                229      AM010800    1     20
                230      AM01080x    1     20
                231      AM01080y    1     20
                232      AM01080z    1     20
                233      AM020100    1     20
                234      AM02010x    1     20
                235      AM02010y    1     20
                236      AM02010z    1     20
                237      AM030100    1     20
                238      AM03010x    1     20
                239      AM03010y    1     20
                240      AM03010z    1     20
                241      AM010800    1     21
                242      AM01080x    1     21
                243      AM01080y    1     21
                244      AM01080z    1     21
                245      AM020100    1     21
                246      AM02010x    1     21
                247      AM02010y    1     21
                248      AM02010z    1     21
                249      AM030100    1     21
                250      AM03010x    1     21
                251      AM03010y    1     21
                252      AM03010z    1     21
                253      AM010800    1     22
                254      AM01080x    1     22
                255      AM01080y    1     22
                256      AM01080z    1     22
                257      AM020100    1     22
                258      AM02010x    1     22
                259      AM02010y    1     22
                260      AM02010z    1     22
                261      AM030100    1     22
                262      AM03010x    1     22
                263      AM03010y    1     22
                264      AM03010z    1     22
                265      AM010800    1     23
                266      AM01080x    1     23
                267      AM01080y    1     23
                268      AM01080z    1     23
                269      AM020100    1     23
                270      AM02010x    1     23
                271      AM02010y    1     23
                272      AM02010z    1     23
                273      AM030100    1     23
                274      AM03010x    1     23
                275      AM03010y    1     23
                276      AM03010z    1     23
                277      AM010800    1     24
                278      AM01080x    1     24
                279      AM01080y    1     24
                280      AM01080z    1     24
                281      AM020100    1     24
                282      AM02010x    1     24
                283      AM02010y    1     24
                284      AM02010z    1     24
                285      AM030100    1     24
                286      AM03010x    1     24
                287      AM03010y    1     24
                288      AM03010z    1     24
                289      AM010800    1     25
                290      AM01080x    1     25
                291      AM01080y    1     25
                292      AM01080z    1     25
                293      AM020100    1     25
                294      AM02010x    1     25
                295      AM02010y    1     25
                296      AM02010z    1     25
                297      AM030100    1     25
                298      AM03010x    1     25
                299      AM03010y    1     25
                300      AM03010z    1     25
                301      AM010800    1     26
                302      AM01080x    1     26
                303      AM01080y    1     26
                304      AM01080z    1     26
                305      AM020100    1     26
                306      AM02010x    1     26
                307      AM02010y    1     26
                308      AM02010z    1     26
                309      AM030100    1     26
                310      AM03010x    1     26
                311      AM03010y    1     26
                312      AM03010z    1     26
                313      AM010800    1     27
                314      AM01080x    1     27
                315      AM01080y    1     27
                316      AM01080z    1     27
                317      AM020100    1     27
                318      AM02010x    1     27
                319      AM02010y    1     27
                320      AM02010z    1     27
                321      AM030100    1     27
                322      AM03010x    1     27
                323      AM03010y    1     27
                324      AM03010z    1     27
                325      AM010800    1     28
                326      AM01080x    1     28
                327      AM01080y    1     28
                328      AM01080z    1     28
                329      AM020100    1     28
                330      AM02010x    1     28
                331      AM02010y    1     28
                332      AM02010z    1     28
                333      AM030100    1     28
                334      AM03010x    1     28
                335      AM03010y    1     28
                336      AM03010z    1     28
                337      AM010800    1     29
                338      AM01080x    1     29
                339      AM01080y    1     29
                340      AM01080z    1     29
                341      AM020100    1     29
                342      AM02010x    1     29
                343      AM02010y    1     29
                344      AM02010z    1     29
                345      AM030100    1     29
                346      AM03010x    1     29
                347      AM03010y    1     29
                348      AM03010z    1     29
                349      AM010800    1     30
                350      AM01080x    1     30
                351      AM01080y    1     30
                352      AM01080z    1     30
                353      AM020100    1     30
                354      AM02010x    1     30
                355      AM02010y    1     30
                356      AM02010z    1     30
                357      AM030100    1     30
                358      AM03010x    1     30
                359      AM03010y    1     30
                360      AM03010z    1     30
                361      AM010800    1     31
                362      AM01080x    1     31
                363      AM01080y    1     31
                364      AM01080z    1     31
                365      AM020100    1     31
                366      AM02010x    1     31
                367      AM02010y    1     31
                368      AM02010z    1     31
                369      AM030100    1     31
                370      AM03010x    1     31
                371      AM03010y    1     31
                372      AM03010z    1     31
                373      AM010800    1     32
                374      AM01080x    1     32
                375      AM01080y    1     32
                376      AM01080z    1     32
                377      AM020100    1     32
                378      AM02010x    1     32
                379      AM02010y    1     32
                380      AM02010z    1     32
                381      AM030100    1     32
                382      AM03010x    1     32
                383      AM03010y    1     32
                384      AM03010z    1     32
                385      AM010800    1     33
                386      AM01080x    1     33
                387      AM01080y    1     33
                388      AM01080z    1     33
                389      AM020100    1     33
                390      AM02010x    1     33
                391      AM02010y    1     33
                392      AM02010z    1     33
                393      AM030100    1     33
                394      AM03010x    1     33
                395      AM03010y    1     33
                396      AM03010z    1     33
                397      AM010800    1     34
                398      AM01080x    1     34
                399      AM01080y    1     34
                400      AM01080z    1     34
                401      AM020100    1     34
                402      AM02010x    1     34
                403      AM02010y    1     34
                404      AM02010z    1     34
                405      AM030100    1     34
                406      AM03010x    1     34
                407      AM03010y    1     34
                408      AM03010z    1     34
                409      AM010800    1     35
                410      AM01080x    1     35
                411      AM01080y    1     35
                412      AM01080z    1     35
                413      AM020100    1     35
                414      AM02010x    1     35
                415      AM02010y    1     35
                416      AM02010z    1     35
                417      AM030100    1     35
                418      AM03010x    1     35
                419      AM03010y    1     35
                420      AM03010z    1     35
                421      AM010800    1     36
                422      AM01080x    1     36
                423      AM01080y    1     36
                424      AM01080z    1     36
                425      AM020100    1     36
                426      AM02010x    1     36
                427      AM02010y    1     36
                428      AM02010z    1     36
                429      AM030100    1     36
                430      AM03010x    1     36
                431      AM03010y    1     36
                432      AM03010z    1     36
                433      AM010800    1     37
                434      AM01080x    1     37
                435      AM01080y    1     37
                436      AM01080z    1     37
                437      AM020100    1     37
                438      AM02010x    1     37
                439      AM02010y    1     37
                440      AM02010z    1     37
                441      AM030100    1     37
                442      AM03010x    1     37
                443      AM03010y    1     37
                444      AM03010z    1     37
                445      AM010800    1     38
                446      AM01080x    1     38
                447      AM01080y    1     38
                448      AM01080z    1     38
                449      AM020100    1     38
                450      AM02010x    1     38
                451      AM02010y    1     38
                452      AM02010z    1     38
                453      AM030100    1     38
                454      AM03010x    1     38
                455      AM03010y    1     38
                456      AM03010z    1     38
                457      AM010800    1     39
                458      AM01080x    1     39
                459      AM01080y    1     39
                460      AM01080z    1     39
                461      AM020100    1     39
                462      AM02010x    1     39
                463      AM02010y    1     39
                464      AM02010z    1     39
                465      AM030100    1     39
                466      AM03010x    1     39
                467      AM03010y    1     39
                468      AM03010z    1     39
                469      AM010800    1     40
                470      AM01080x    1     40
                471      AM01080y    1     40
                472      AM01080z    1     40
                473      AM020100    1     40
                474      AM02010x    1     40
                475      AM02010y    1     40
                476      AM02010z    1     40
                477      AM030100    1     40
                478      AM03010x    1     40
                479      AM03010y    1     40
                480      AM03010z    1     40
               --------------------------------------------------


      

    *******************************************************************
    *          SOLVING COUPLED CLUSTER RESPONSE EQUATIONS             *
    *******************************************************************



 
 +======================================================================+
 !                     RHS & ETA VECTORS TO COMPUTE:                    !
 +======================================================================+
 | TYPE | # VEC. |  NEEDED FOR:                                         |
 +----------------------------------------------------------------------+
 |  O1  |   12   |  first-order amplitude equations                     |
 +======================================================================+



 +======================================================================+
 !                       LINEAR EQUATIONS TO SOLVE:                     !
 +======================================================================+
 | TYPE | # VEC. |  EQUATION:                                           |
 +----------------------------------------------------------------------+
 |  R1  |   12   |  first-order amplitude response                      |
 |  RC  |  480   |  first-order right Cauchy vectors                    |
 +======================================================================+



 +======================================================================+
 !                F MATRIX TRANSFORMATIONS TO COMPUTE:                  !
 +======================================================================+
 | TYPE | # VEC. |  TRANSFORMED:                                        |
 +----------------------------------------------------------------------+
 |  F1  |   12   |  first-order amplitude response (R1) vector          |
 +======================================================================+




 -------------------------------------------------------------------
 |          OUTPUT FROM AMPLITUDE RHS VECTOR SECTION               |
 -------------------------------------------------------------------

@ WARNING: ETA1 VECTOR FOR AM010800( F, 0.00000D+00) IS NOT AVAILABLE.
@ WARNING: ETA1 VECTOR FOR AM01080x( F, 0.00000D+00) IS NOT AVAILABLE.
@ WARNING: ETA1 VECTOR FOR AM01080y( F, 0.00000D+00) IS NOT AVAILABLE.
@ WARNING: ETA1 VECTOR FOR AM01080z( F, 0.00000D+00) IS NOT AVAILABLE.
@ WARNING: ETA1 VECTOR FOR AM020100( F, 0.00000D+00) IS NOT AVAILABLE.
@ WARNING: ETA1 VECTOR FOR AM02010x( F, 0.00000D+00) IS NOT AVAILABLE.
@ WARNING: ETA1 VECTOR FOR AM02010y( F, 0.00000D+00) IS NOT AVAILABLE.
@ WARNING: ETA1 VECTOR FOR AM02010z( F, 0.00000D+00) IS NOT AVAILABLE.
@ WARNING: ETA1 VECTOR FOR AM030100( F, 0.00000D+00) IS NOT AVAILABLE.
@ WARNING: ETA1 VECTOR FOR AM03010x( F, 0.00000D+00) IS NOT AVAILABLE.
@ WARNING: ETA1 VECTOR FOR AM03010y( F, 0.00000D+00) IS NOT AVAILABLE.
@ WARNING: ETA1 VECTOR FOR AM03010z( F, 0.00000D+00) IS NOT AVAILABLE.


   For the requested 12 1th.-order amplitude rhs vectors "O1 ".
         -   0 D matrix transformations 
         -   0 C matrix transformations 
         -   0 B matrix transformations 
         -   0 C{O} matrix transformations 
         -   0 B{O} matrix transformations 
         -   0 A{O} matrix transformations 
         -  12Xi{O} vector calculations    
   will be performed.



 Solution of CC response equations completed.


 *******************************************************************
 *                                                                 *
 *     COUPLED CLUSTER LINEAR RESPONSE DISPERSION COEFFICIENTS     *
 *                                                                 *
 *******************************************************************



   For the requested144 Cauchy moments
         - 397 F matrix transformations with Cauchy vectors
         -  12 ETA and XKSI vector calculations 
   will be performed.




             +--------------------------------------------------------+
             !         FINAL CCSD RESULTS FOR DISPERSION COEFFICIENTS !
             +--------------------------------------------------------+

    The dispersion coefficients D_AB(n) for n>0 are defined through the expansion:
                          alpha(w) = sum_n w^n D_AB(n) 

    D_AB(-4) corresponds to the S_AB(+2) Cauchy moment,
    D_AB(-2) corresponds to the S_AB( 0) Cauchy moment.

    Note that the sign of dispersion coefficients is here defined opposite to
    the sign of the linear response functions!


 A operator   B operator     n        D_AB
----------------------------------------------------------------------------------------

   AM010800    AM010800     -4        3.69276457178    
                            -2       0.765388189149    
                             0       0.458046510441    
                             2       0.800163268216    
                             4        3.20957953769    
                             6        17.9660760101    
                             8        111.027816495    
                            10        707.537460068    
                            12        4556.31227332    
                            14        29451.7069592    
                            16        190637.227276    
                            18        1234605.22815    
                            20        7997084.99990    
                            22        51804367.0615    
                            24        335592798.450    
                            26        2174018459.71    
                            28        14083657062.0    
                            30        91236425197.3    
                            32        591046031537.    
                            34       0.382890362693E+13
                            36       0.248043354792E+14
                            38       0.160687009970E+15
                            40       0.104095977321E+16

   AM010800    AM020100     -4       -1.84638421276    
                            -2      -0.382694104473    
                             0      -0.229023223556    
                             2      -0.400081488911    
                             4       -1.60478907672    
                             6       -8.98303418688    
                             8       -55.5138851718    
                            10       -353.768584598    
                            12       -2278.15520438    
                            14       -14725.8474641    
                            16       -95318.5747265    
                            18       -617302.362142    
                            20       -3998540.86824    
                            22       -25902172.9611    
                            24       -167796330.753    
                            26       -1087008786.29    
                            28       -7041825657.64    
                            30       -45618193984.9    
                            32       -295522895186.    
                            34      -0.191445103231E+13
                            36      -0.124021626791E+14
                            38      -0.803434722022E+14
                            40      -0.520479674233E+15

   AM010800    AM030100     -4       -1.84638421276    
                            -2      -0.382694104473    
                             0      -0.229023223556    
                             2      -0.400081488910    
                             4       -1.60478907671    
                             6       -8.98303418693    
                             8       -55.5138851720    
                            10       -353.768584606    
                            12       -2278.15520437    
                            14       -14725.8474638    
                            16       -95318.5747235    
                            18       -617302.362118    
                            20       -3998540.86807    
                            22       -25902172.9598    
                            24       -167796330.748    
                            26       -1087008786.25    
                            28       -7041825657.19    
                            30       -45618193981.0    
                            32       -295522895159.    
                            34      -0.191445103214E+13
                            36      -0.124021626780E+14
                            38      -0.803434721952E+14
                            40      -0.520479674188E+15

   AM010800    AM01080x     -4      -0.170884708158E-13
                            -2       0.142627842215E-14
                             0      -0.491755195425E-15
                             2      -0.139736510116E-13
                             4       0.123490457684E-13
                             6      -0.527553304220E-12
                             8      -0.337629521812E-10
                            10       0.217848069788E-08
                            12      -0.836507211312E-07
                            14      -0.646962972246E-06
                            16      -0.530763983273E-05
                            18      -0.465199547543E-04
                            20      -0.437391134261E-03
                            22      -0.437026461305E-02
                            24      -0.457031054609E-01
                            26      -0.492988085220    
                            28       -5.42318446431    
                            30       -60.3769538640    
                            32       -676.976089460    
                            34       -7622.15117133    
                            36       -86025.1624080    
                            38       -972242.871040    
                            40       -10996873.3836    

   AM010800    AM01080y     -4       0.486166361455E-13
                            -2       0.391868074903E-15
                             0      -0.591543367255E-14
                             2      -0.122294750639E-11
                             4      -0.254868197663E-10
                             6       0.413882773070E-10
                             8       0.135102858921E-09
                            10       0.484910317232E-08
                            12      -0.361571012733E-07
                            14      -0.666246371104E-06
                            16      -0.609256762674E-05
                            18      -0.474501589981E-04
                            20      -0.339652194505E-03
                            22      -0.234042225178E-02
                            24      -0.136899921797E-01
                            26      -0.796597820270E-01
                            28      -0.618630143497    
                            30       -5.05282126283    
                            32       -35.4425256065    
                            34       -231.812983778    
                            36       -1477.57182814    
[...]
                            18        92763.8651752    
                            20        577828.692450    
                            22        3645771.49039    
                            24        23199519.6124    
                            26        148470064.062    
                            28        953807273.852    
                            30        6143400984.97    
                            32        39639320640.0    
                            34        256077824791.    
                            36       0.165570423243E+13
                            38       0.107114138738E+14
                            40       0.693245693769E+14

   AM03010y    AM03010z     -4       0.928489407914E-01
                            -2      -0.175079001215E-01
                             0       0.453445001199E-01
                             2       0.207604585879    
                             4       0.911563827537    
                             6        4.44936691330    
                             8        23.7214191942    
                            10        134.749230044    
                            12        799.340598413    
                            14        4881.00778035    
                            16        30383.1762872    
                            18        191563.307180    
                            20        1218186.63905    
                            22        7791635.27902    
                            24        50032608.2073    
                            26        322142960.631    
                            28        2078025027.59    
                            30        13421814374.1    
                            32        86768015827.2    
                            34        561278715544.    
                            36       0.363234010674E+13
                            38       0.235140159764E+14
                            40       0.152250929776E+15

   AM03010z    AM010800     -4      -0.608257899719E-01
                            -2       0.696413770808E-01
                             0       0.948591993456E-01
                             2       0.314203097329    
                             4        1.63820574348    
                             6        9.86453129914    
                             8        62.2553126631    
                            10        399.443020043    
                            12        2578.44469816    
                            14        16681.4315859    
                            16        108011.656559    
                            18        699589.280909    
                            20        4531752.55443    
                            22        29356758.9631    
                            24        190176600.228    
                            26        1231994267.52    
                            28        7981072934.54    
                            30        51702821058.2    
                            32        334940248461.    
                            34       0.216980391040E+13
                            36       0.140563853980E+14
                            38       0.910598293120E+14
                            40       0.589902192541E+15

   AM03010z    AM020100     -4       0.743337371810E-01
                            -2       0.255046684218E-02
                             0       0.111114551664E-02
                             2      -0.133284798020E-01
                             4      -0.277470308748    
                             6       -2.74673253913    
                             8       -22.0390842209    
                            10       -161.184211811    
                            12       -1123.32749250    
                            14       -7617.68994326    
                            16       -50822.5887336    
                            18       -335664.771814    
                            20       -2202745.73799    
                            22       -14394866.9639    
                            24       -93809963.7789    
                            26       -610215313.409    
                            28       -3964323266.18    
                            30       -25732349541.6    
                            32       -166928589701.    
                            34      -0.108243621429E+13
                            36      -0.701695634181E+13
                            38      -0.454786780728E+14
                            40      -0.294717345543E+15

   AM03010z    AM030100     -4      -0.135066164346E-01
                            -2      -0.721918183688E-01
                             0      -0.959703095177E-01
                             2      -0.300874476560    
                             4       -1.36073472068    
                             6       -7.11779461253    
                             8       -40.2162027320    
                            10       -238.258644483    
                            12       -1455.11615166    
                            14       -9063.73483106    
                            16       -57189.0237385    
                            18       -363924.223591    
                            20       -2329004.96712    
                            22       -14961880.0195    
                            24       -96366558.8441    
                            26       -621778451.377    
                            28       -4016746411.55    
                            30       -25970450418.4    
                            32       -168011522082.    
                            34      -0.108736681068E+13
                            36      -0.703942332028E+13
                            38      -0.455811140808E+14
                            40      -0.295184606280E+15

   AM03010z    AM01080x     -4       0.186206740954E-15
                            -2       0.318315295950E-16
                             0      -0.239063480749E-15
                             2      -0.182735424852E-14
                             4      -0.661790960146E-13
                             6       0.360836932854E-12
                             8      -0.536642522423E-11
                            10       0.987579627324E-08
                            12       0.885365933005E-07
                            14       0.117902252411E-05
                            16       0.145261738642E-04
                            18       0.172253818648E-03
                            20       0.200120870377E-02
                            22       0.229896626542E-01
                            24       0.262451414803    
                            26        2.98559312431    
                            28        33.8955471427    
                            30        384.378736569    
                            32        4356.06138429    
                            34        49347.7555843    
                            36        558918.746038    
                            38        6329614.53311    
                            40        71676324.9940    

   AM03010z    AM01080y     -4       -3.06987670158    
                            -2      -0.312001696470    
                             0       0.653613430118E-01
                             2       0.450592602250    
                             4        1.78347019790    
                             6        7.19493041563    
                             8        29.7952281989    
                            10        125.843904431    
                            12        539.940702009    
                            14        2346.80423136    
                            16        10309.1063607    
                            18        45678.2862326    
                            20        203793.662767    
                            22        914188.308831    
                            24        4118393.45283    
                            26        18614486.5782    
                            28        84348160.8137    
                            30        382951168.117    
                            32        1741222448.06    
                            34        7926000069.10    
                            36        36109777019.6    
                            38        164617662876.    
                            40        750828048272.    

   AM03010z    AM01080z     -4       -2.23598011969    
                            -2       0.903721656643E-02
                             0       0.199564901655    
                             2       0.917648026013    
                             4        5.46895533424    
                             6        34.5158283547    
                             8        221.522213414    
                            10        1430.12389802    
                            12        9252.73967014    
                            14        59912.3084497    
                            16        388053.536217    
                            18        2513713.77172    
                            20        16283890.2511    
                            22        105489029.512    
                            24        683374806.053    
                            26        4427020960.53    
                            28        28679035858.7    
                            30        185787995075.    
                            32       0.120356846075E+13
                            34       0.779693596868E+13
                            36       0.505099738390E+14
                            38       0.327212828555E+15
                            40       0.211974442414E+16

   AM03010z    AM02010x     -4       0.929754246342E-16
                            -2       0.532628158123E-18
                             0      -0.162886481726E-15
                             2       0.259605973172E-14
                             4       0.111002582799E-12
                             6      -0.298697626270E-12
                             8       0.667304410603E-10
                            10      -0.357932411461E-07
                            12      -0.249717802804E-06
                            14      -0.228387709961E-05
                            16      -0.194090138608E-04
                            18      -0.156076882583E-03
                            20      -0.119297011892E-02
                            22      -0.860418495331E-02
                            24      -0.570221579508E-01
                            26      -0.320984957696    
                            28       -1.07262647785    
                            30        7.79168893842    
                            32        241.717164217    
                            34        3908.58720521    
                            36        53138.2542508    
                            38        668625.371441    
                            40        8073011.47097    

   AM03010z    AM02010y     -4      -0.716911770809E-01
                            -2       0.158172270789E-02
                             0       0.246793192670E-02
                             2       0.836950501300E-02
                             4      -0.452043655263E-01
                             6      -0.920701478591    
                             8       -9.07259333379    
                            10       -72.8858822313    
                            12       -534.132141649    
                            14       -3729.35404589    
                            16       -25328.2730956    
                            18       -169180.933688    
                            20       -1118381.74550    
                            22       -7344116.22328    
                            24       -48017216.8245    
                            26       -313036048.083    
                            28       -2036766838.54    
                            30       -13234525245.3    
                            32       -85916537403.0    
                            34       -557403144905.    
                            36      -0.361468469951E+13
                            38      -0.234335323232E+14
                            40      -0.151883854320E+15

   AM03010z    AM02010z     -4       0.264397955570E-02
                            -2       0.862263803747E-03
                             0       0.846550134900E-02
                             2       0.597952604445E-01
                             4       0.497076810560    
                             6        3.84360124504    
                             8        27.8950121529    
                            10        194.393407256    
                            12        1320.68490991    
                            14        8829.27013736    
                            16        58417.6885239    
                            18        383894.436928    
                            20        2511400.83126    
                            22        16379408.6284    
                            24        106605801.111    
                            26        692861209.674    
                            28        4498683040.78    
                            30        29189634658.2    
                            32        189306592835.    
                            34       0.122732255784E+13
                            36       0.795519364576E+13
                            38       0.515551402833E+14
                            40       0.334074583972E+15

   AM03010z    AM03010x     -4      -0.316688005595E-15
                            -2      -0.316581978587E-16
                             0       0.130056897280E-15
                             2      -0.292901519240E-14
                             4      -0.126342625742E-12
                             6       0.355773581781E-12
                             8      -0.699342421541E-10
                            10       0.383296985190E-07
                            12       0.272196142427E-06
                            14       0.258235695769E-05
                            16       0.230799303780E-04
                            18       0.199558136238E-03
                            20       0.169778948937E-02
                            22       0.144012774194E-01
                            24       0.123187741664    
                            26        1.07357799543    
                            28        9.61624156489    
                            30        89.0898343860    
                            32        856.190073129    
                            34        8528.92093234    
                            36        87729.4378021    
                            38        926659.062567    
                            40        9991887.28081    

   AM03010z    AM03010y     -4       0.928489407914E-01
                            -2      -0.175079001215E-01
                             0       0.453445001199E-01
                             2       0.207604585879    
                             4       0.911563827537    
                             6        4.44936691330    
                             8        23.7214191942    
                            10        134.749230044    
                            12        799.340598413    
                            14        4881.00778035    
                            16        30383.1762872    
                            18        191563.307180    
                            20        1218186.63905    
                            22        7791635.27902    
                            24        50032608.2073    
                            26        322142960.631    
                            28        2078025027.59    
                            30        13421814374.1    
                            32        86768015827.2    
                            34        561278715544.    
                            36       0.363234010674E+13
                            38       0.235140159764E+14
                            40       0.152250929776E+15

   AM03010z    AM03010z     -4        2.56882789017    
                            -2       0.312292354573    
                             0       0.104612853871    
                             2       0.259734048439    
                             4        1.27881433485    
                             6        7.15572148913    
                             8        42.2407404817    
                            10        257.317093252    
                            12        1599.23961139    
                            14        10071.2481410    
                            16        63986.3242129    
                            18        408971.556272    
                            20        2624713.04589    
                            22        16892749.8771    
                            24        108936044.629    
                            26        703455134.073    
                            28        4546901651.30    
                            30        29409295983.6    
                            32        190307931860.    
                            34       0.123188951563E+13
                            36       0.797603077120E+13
                            38       0.516502386717E+14
                            40       0.334508696663E+15

----------------------------------------------------------------------------------------


  

 *******************************************************************************
 *******************************************************************************
 *                                                                             *
 *                                                                             *
 *                   SUMMARY OF COUPLED CLUSTER CALCULATION                    *
 *                                                                             *
 *                                                                             *
 *******************************************************************************
 *******************************************************************************

                                                                                
                                                                                
            Total SCF   energy:                   -76.0033136829                
            Total MP2   energy:                   -76.2086165799                
            Total CCSD  energy:                   -76.2165617252                
  

 *******************************************************************************
 *******************************************************************************
 *                                                                             *
 *                                                                             *
 *                      END OF COUPLED CLUSTER CALCULATION                     *
 *                                                                             *
 *                                                                             *
 *******************************************************************************
 *******************************************************************************


 CPU and wall time for CC :      39.420      54.046

 
     Date and time (Linux)  : Thu May 22 17:47:25 2025
     Host name              : s53n09.grendel.cscaa.dk                 


                      .-------------------------------------.
                      | End of Coupled Cluster Section (CC) |
                      `-------------------------------------'

  Total CPU  time used in DALTON:  39.46 seconds
  Total wall time used in DALTON:  54.38 seconds

 
     Date and time (Linux)  : Thu May 22 17:47:25 2025
     Host name              : s53n09.grendel.cscaa.dk                 
