

     ************************************************************************
     *************** Dalton - An Electronic Structure Program ***************
     ************************************************************************

    This is output from DALTON release Dalton2024.0-dev (2024)
         ( Web site: http://daltonprogram.org )

   ----------------------------------------------------------------------------

    NOTE:
     
    Dalton is an experimental code for the evaluation of molecular
    properties using (MC)SCF, DFT, CI, and CC wave functions.
    The authors accept no responsibility for the performance of
    the code or for the correctness of the results.
     
    The code (in whole or part) is provided under a licence and
    is not to be reproduced for further distribution without
    the written permission of the authors or their representatives.
     
    See the home page "http://daltonprogram.org" for further information.
     
    If results obtained with this code are published,
    the appropriate citations would be both of:
     
       K. Aidas, C. Angeli, K. L. Bak, V. Bakken,
       R. Bast, L. Boman, O. Christiansen, R. Cimiraglia,
       S. Coriani, P. Dahle, E. K. Dalskov, U. Ekstroem,
       T. Enevoldsen, J. J. Eriksen, P. Ettenhuber, B. Fernandez,
       L. Ferrighi, H. Fliegl, L. Frediani, K. Hald, A. Halkier,
       C. Haettig, H. Heiberg, T. Helgaker, A. C. Hennum,
       H. Hettema, E. Hjertenaes, S. Hoest, I.-M. Hoeyvik,
       M. F. Iozzi, B. Jansik, H. J. Aa. Jensen, D. Jonsson,
       P. Joergensen, J. Kauczor, S. Kirpekar,
       T. Kjaergaard, W. Klopper, S. Knecht, R. Kobayashi, H. Koch,
       J. Kongsted, A. Krapp, K. Kristensen, A. Ligabue,
       O. B. Lutnaes, J. I. Melo, K. V. Mikkelsen, R. H. Myhre,
       C. Neiss, C. B. Nielsen, P. Norman, J. Olsen,
       J. M. H. Olsen, A. Osted, M. J. Packer, F. Pawlowski,
       T. B. Pedersen, P. F. Provasi, S. Reine, Z. Rinkevicius,
       T. A. Ruden, K. Ruud, V. Rybkin, P. Salek, C. C. M. Samson,
       A. Sanchez de Meras, T. Saue, S. P. A. Sauer,
       B. Schimmelpfennig, K. Sneskov, A. H. Steindal,
       K. O. Sylvester-Hvid, P. R. Taylor, A. M. Teale,
       E. I. Tellgren, D. P. Tew, A. J. Thorvaldsen, L. Thoegersen,
       O. Vahtras, M. A. Watson, D. J. D. Wilson, M. Ziolkowski
       and H. Agren,
       "The Dalton quantum chemistry program system",
       WIREs Comput. Mol. Sci. 2014, 4:269-284 (doi: 10.1002/wcms.1172)
     
    and
     
       Dalton, a molecular electronic structure program,
       Release Dalton2024.0-dev (2024), see http://daltonprogram.org
   ----------------------------------------------------------------------------

    Authors in alphabetical order (Major contribution(s) in parenthesis):

  Kestutis Aidas,              Vilnius University,        Lithuania   (QM/MM)
  Celestino Angeli,            University of Ferrara,     Italy       (NEVPT2)
  Juan J. Aucar,               Northeast National UniversiArgentina   (LRESC, Relativistic Effects on EFG)
  Keld L. Bak,                 UNI-C,                     Denmark     (AOSOPPA, non-adiabatic coupling, magnetic properties)
  Vebjoern Bakken,             University of Oslo,        Norway      (DALTON; geometry optimizer, symmetry detection)
  Radovan Bast,                UiT The Arctic U. of NorwayNorway      (DALTON installation and execution frameworks)
  Pablo Baudin,                University of Valencia,    Spain       (Cholesky excitation energies)
  Linus Boman,                 NTNU,                      Norway      (Cholesky decomposition and subsystems)
  Bruno N. Cabral Tenorio,     Technical Univ. of Denmark,Denmark     (Lanczos-based CC methods)
  Ove Christiansen,            Aarhus University,         Denmark     (CC module)
  Renzo Cimiraglia,            University of Ferrara,     Italy       (NEVPT2)
  Sonia Coriani,               Technical Univ. of Denmark,Denmark     (CC and RESPONS modules)
  Janusz Cukras,               University of Warsaw,      Poland      (MChD in RESPONS)
  Paal Dahle,                  University of Oslo,        Norway      (Parallelization)
  Erik K. Dalskov,             UNI-C,                     Denmark     (SOPPA)
  Thomas Enevoldsen,           Univ. of Southern Denmark, Denmark     (SOPPA)
  Janus J. Eriksen,            Aarhus University,         Denmark     (Polarizable embedding, TDA)
  Rasmus Faber,                Technical Univ. of Denmark,Denmark     (Vib.avg. NMR w. SOPPA, parallel AO-SOPPA, CVS-CC and EOMCC)
  Tobias Fahleson,             KTH Stockholm,             Sweden      (Damped cubic response)
  Berta Fernandez,             U. of Santiago de CompostelSpain       (Doublet spin, ESR in RESPONS)
  Lara Ferrighi,               Aarhus University,         Denmark     (PCM Cubic response)
  Heike Fliegl,                University of Oslo,        Norway      (CCSD(R12))
  Luca Frediani,               UiT The Arctic U. of NorwayNorway      (PCM)
  Emmanuel Fromager,           Univ. Strasbourg,          France      (MC-srDFT)
  Bin Gao,                     UiT The Arctic U. of NorwayNorway      (Gen1Int library)
  Andre S. P. Gomes,           CNRS/Universite de Lille,  France      (Frozen density embedding)
  Christof Haettig,            Ruhr-University Bochum,    Germany     (CC module)
  Kasper Hald,                 Aarhus University,         Denmark     (CC module)
  Asger Halkier,               Aarhus University,         Denmark     (CC module)
  Frederik Beyer Hansen,       University of Copenhagen,  Denmark     (Parallel AO-SOPPA)
  Erik D. Hedegaard,           Univ. of Southern Denmark, Denmark     (Polarizable embedding, QM/MM, and MC-srDFT)
  Hanne Heiberg,               University of Oslo,        Norway      (Geometry analysis, selected one-electron integrals)
  Trygve Helgaker,             University of Oslo,        Norway      (DALTON; ABACUS, ERI, DFT modules, London, and much more)
  Alf Christian Hennum,        University of Oslo,        Norway      (Parity violation)
  Hinne Hettema,               University of Auckland,    New Zealand (Quadratic response in RESPONS; SIRIUS supersymmetry)
  Andreas E. Hillers-Bendtsen, University of Copenhagen,  Denmark     (MP3)
  Eirik Hjertenaes,            NTNU,                      Norway      (Cholesky decomposition)
  Nicolai Machholdt Hoeyer,    Aarhus University,         Denmark     (MP3)
  Pi A. B. Haase,              University of Copenhagen,  Denmark     (Triplet AO-SOPPA)
  Maria Francesca Iozzi,       University of Oslo,        Norway      (RPA)
  Christoph Jacob,             TU Braunschweig            Germany     (Frozen density embedding)
  Brano Jansik,                Technical Univ. of Ostrava Czech Rep.  (DFT cubic response)
  Hans Joergen Aa. Jensen,     Univ. of Southern Denmark, Denmark     (DALTON; SIRIUS, RESPONS, ABACUS, MC-srDFT, and much more)
  Dan Jonsson,                 UiT The Arctic U. of NorwayNorway      (Cubic response in RESPONS module)
  Poul Joergensen,             Aarhus University,         Denmark     (RESPONS, ABACUS, and CC modules)
  Maciej Kaminski,             University of Warsaw,      Poland      (CPPh in RESPONS)
  Joanna Kauczor,              Linkoeping University,     Sweden      (Complex polarization propagator (CPP) module)
  Sheela Kirpekar,             Univ. of Southern Denmark, Denmark     (Mass-velocity & Darwin integrals)
  Frederik Oersted Kjeldal,    Technical Univ. of Denmark,Denmark     (MP3)
  Erik Kjellgren,              Univ. of Southern Denmark, Denmark     (MC-srDFT)
  Wim Klopper,                 KIT Karlsruhe,             Germany     (R12 code in CC, SIRIUS, and ABACUS modules)
  Stefan Knecht,               ETH Zurich,                Switzerland (Parallel CI and MCSCF, MC-srDFT)
  Rika Kobayashi,              Australian National Univ., Australia   (DIIS in CC, London in MCSCF)
  Henrik Koch,                 NTNU,                      Norway      (CC module, Cholesky decomposition)
  Jacob Kongsted,              Univ. of Southern Denmark, Denmark     (Polarizable embedding, polarizable density embedding, QM/MM)
  Andrea Ligabue,              University of Modena,      Italy       (CTOCD, AOSOPPA)
  Nanna H. List,               Univ. of Southern Denmark, Denmark     (Polarizable embedding)
  Ola B. Lutnaes,              University of Oslo,        Norway      (DFT Hessian)
  Juan I. Melo,                University of Buenos Aires,Argentina   (LRESC, Relativistic Effects on NMR Shieldings)
  Kurt V. Mikkelsen,           University of Copenhagen,  Denmark     (MC-SCRF, QM/MM, and MP3)
  Rolf H. Myhre,               NTNU,                      Norway      (Subsystems and CC3)
  Christian Neiss,             Univ. Erlangen-Nuernberg,  Germany     (CCSD(R12))
  Christian B. Nielsen,        University of Copenhagen,  Denmark     (QM/MM)
  Patrick Norman,              KTH Stockholm,             Sweden      (Cubic response and complex frequency response in RESPONS)
  Jeppe Olsen,                 Aarhus University,         Denmark     (SIRIUS CI/density modules)
  Jogvan Magnus H. Olsen,      Aarhus University,         Denmark     (Polarizable embedding and polarizable density embedding)
  Anders Osted,                Copenhagen University,     Denmark     (QM/MM)
  Martin J. Packer,            University of Sheffield,   UK          (SOPPA)
  Filip Pawlowski,             Kazimierz Wielki UniversityPoland      (CC3)
  Morten N. Pedersen,          Univ. of Southern Denmark, Denmark     (Polarizable embedding)
  Thomas B. Pedersen,          University of Oslo,        Norway      (Cholesky decomposition)
  Patricio F. Provasi,         University of Northeastern,Argentina   (Analysis of coupling constants in localized orbitals)
  Peter Reinholdt,             Univ. of Southern Denmark, Denmark     (Polarizable embedding and polarizable density embedding)
  Zilvinas Rinkevicius,        KTH Stockholm,             Sweden      (open-shell DFT, ESR)
  Elias Rudberg,               KTH Stockholm,             Sweden      (DFT grid and basis info)
  Torgeir A. Ruden,            University of Oslo,        Norway      (Numerical derivatives in ABACUS)
  Kenneth Ruud,                UiT The Arctic U. of NorwayNorway      (DALTON; ABACUS magnetic properties and much more)
  Pawel Salek,                 KTH Stockholm,             Sweden      (DALTON; DFT code)
  Claire C. M. Samson,         University of Karlsruhe    Germany     (Boys localization, r12 integrals in ERI)
  Alfredo Sanchez de Meras,    University of Valencia,    Spain       (CC module, Cholesky decomposition)
  Trond Saue,                  Paul Sabatier University,  France      (direct Fock matrix construction)
  Stephan P. A. Sauer,         University of Copenhagen,  Denmark     (SOPPA(CCSD), SOPPA prop., AOSOPPA, vibrational g-factors)
  Bernd Schimmelpfennig,       Forschungszentrum KarlsruheGermany     (AMFI module)
  Anna K. Schnack-Petersen,    University of Copenhagen,  Denmark     (RPA(D) and HRPA(D) properties in AOSOPPA)
  Kristian Sneskov,            Aarhus University,         Denmark     (Polarizable embedding, QM/MM)
  Arnfinn H. Steindal,         UiT The Arctic U. of NorwayNorway      (parallel QM/MM, polarizable embedding)
  Casper Steinmann,            Aalborg University,        Denmark     (QFIT, polarizable embedding)
  K. O. Sylvester-Hvid,        University of Copenhagen,  Denmark     (MC-SCRF)
  Peter R. Taylor,             VLSCI/Univ. of Melbourne,  Australia   (Symmetry handling ABACUS, integral transformation)
  Andrew M. Teale,             University of Nottingham,  England     (DFT-AC, DFT-D)
  David P. Tew,                University of Bristol,     England     (CCSD(R12))
  Julien Toulouse,             Sorbonne Univ.,            France      (MC-srDFT)
  Olav Vahtras,                KTH Stockholm,             Sweden      (Triplet response, spin-orbit, ESR, TDDFT, open-shell DFT)
  Lucas Visscher,              Vrije Universiteit AmsterdaNetherlands (Frozen density embedding)
  David J. Wilson,             La Trobe University,       Australia   (DFT Hessian and DFT magnetizabilities)
  Luna Zamok,                  University of Copenhagen,  Denmark     (Block Lanczos RPA solver in SOPPA module)
  Hans Agren,                  KTH Stockholm,             Sweden      (SIRIUS module, RESPONS, MC-SCRF solvation)
 --------------------------------------------------------------------------------

     Date and time (Linux)  : Tue Feb 25 10:27:13 2025
     Host name              : s42n23.grendel.cscaa.dk                 

 * Work memory size             :  1310720000 =  9.766 gigabytes.

 * Directories for basis set searches:
   1) /home/jmikk/projects/article4/rotation/ethane
   2) /home/jmikk/programs/dalton-oslo/build64/basis


Compilation information
-----------------------

 Who compiled             | jmikk
 Host                     | grendel
 System                   | Linux-4.18.0-513.18.1.el8_9.x86_64
 CMake generator          | Unix Makefiles
 Processor                | x86_64
 64-bit integers          | ON
 MPI                      | OFF
 Fortran compiler         | /comm/swstack/core/gcc/11.2.0/bin/gfortran
 Fortran compiler version | GNU Fortran (GCC) 11.2.0
 C compiler               | /comm/swstack/core/gcc/11.2.0/bin/gcc
 C compiler version       | gcc (GCC) 11.2.0
 C++ compiler             | /comm/swstack/core/gcc/11.2.0/bin/g++
 C++ compiler version     | g++ (GCC) 11.2.0
 Static linking           | OFF
 Last Git revision        | 082d2ff11a6851740f25fd48efdf99ad0c6d6e99
 Git branch               | crk-oslo
 Configuration time       | 2025-02-24 16:03:31.834128

 * Sequential calculation.


   Content of the .dal input file
 ----------------------------------

**DALTON INPUT
.RUN RESPONSE
**WAVE FUNCTIONS
.DFT
PBE
**RESPONSE
*LINEAR
.ATMMOM
 0
**END OF DALTON INPUT


   Content of the .mol file
 ----------------------------

BASIS
pcseg-1
Ethane (C2H6) with dihedral angle 15°
Property calculated with xxx/pcseg-1. Geo opt with wB97x/pcseg-1.
Atomtypes=2 NoSymmetry Angstrom
Charge=6.0 Atoms=2
C  0.000000  0.000000  0.761326
C  0.000000  0.000000  -0.761326
Charge=1.0 Atoms=6
H  0.000000  1.021612  1.161027
H  -0.884742  -0.510806  1.161027
H  0.884742  -0.510806  1.161027
H  0.264413  0.986801  -1.161027
H  0.722389  -0.722389  -1.161027
H  -0.986801  -0.264413  -1.161027


       *******************************************************************
       *********** Output from DALTON general input processing ***********
       *******************************************************************

 --------------------------------------------------------------------------------
   Overall default print level:    0
   Print level for DALTON.STAT:    1

    HERMIT 1- and 2-electron integral sections will be executed
    "Old" integral transformation used (limited to max 255 basis functions)
    Wave function sections will be executed (SIRIUS module)
    Dynamic molecular response properties section will be executed (RESPONSE module)
 --------------------------------------------------------------------------------


   ****************************************************************************
   *************** Output of molecule and basis set information ***************
   ****************************************************************************


    The two title cards from your ".mol" input:
    --------------------------------------------------------------------------------
 1: Ethane (C2H6) with dihedral angle 15°
 2: Property calculated with xxx/pcseg-1. Geo opt with wB97x/pcseg-1.
    --------------------------------------------------------------------------------

  Coordinates are entered in Angstrom and converted to atomic units.
          - Conversion factor : 1 bohr = 0.52917721 A

  Atomic type no.    1
  --------------------
  Nuclear charge:   6.00000
  Number of symmetry independent centers:    2
  Number of basis sets to read;    2
  Basis set file used for this atomic type with Z =   6 :
     "/home/jmikk/programs/dalton-oslo/build64/basis/pcseg-1"

  Info about the basis set file: your basis has no documentation.
  Basis set: pcseg-1                                                                         

  Atomic type no.    2
  --------------------
  Nuclear charge:   1.00000
  Number of symmetry independent centers:    6
  Number of basis sets to read;    2
  Basis set file used for this atomic type with Z =   1 :
     "/home/jmikk/programs/dalton-oslo/build64/basis/pcseg-1"

  Info about the basis set file: your basis has no documentation.
  Basis set: pcseg-1                                                                         


                         SYMGRP: Point group information
                         -------------------------------

@    Point group: C1 


                                 Isotopic Masses
                                 ---------------

                           C          12.000000
                           C          12.000000
                           H           1.007825
                           H           1.007825
                           H           1.007825
                           H           1.007825
                           H           1.007825
                           H           1.007825

                       Total mass:    30.046950 amu
                       Natural abundance:  97.724 %

 Center-of-mass coordinates (a.u.):    0.000000   -0.000000    0.000000
 Center-of-mass coordinates (Angs):    0.000000   -0.000000    0.000000


  Atoms and basis sets
  --------------------

  Number of atom types :    2
  Total number of atoms:    8

  Basis set used is "pcseg-1" from the basis set library.

  label    atoms   charge   prim   cont     basis
  ----------------------------------------------------------------------
  C           2    6.0000    25    14      [8s4p1d|3s2p1d]                                    
  H           6    1.0000     7     5      [4s1p|2s1p]                                        
  ----------------------------------------------------------------------
  total:      8   18.0000    92    58
  ----------------------------------------------------------------------
  Spherical harmonic basis used.

  Threshold for neglecting AO integrals:  1.00D-12


  Cartesian Coordinates (a.u.)
  ----------------------------

  Total number of coordinates:   24
  C       :     1  x   0.0000000000    2  y   0.0000000000    3  z   1.4386976318
  C       :     4  x   0.0000000000    5  y   0.0000000000    6  z  -1.4386976318
  H       :     7  x   0.0000000000    8  y   1.9305668860    9  z   2.1940230537
  H       :    10  x  -1.6719200713   11  y  -0.9652834430   12  z   2.1940230537
  H       :    13  x   1.6719200713   14  y  -0.9652834430   15  z   2.1940230537
  H       :    16  x   0.4996681539   17  y   1.8647836299   18  z  -2.1940230537
  H       :    19  x   1.3651173657   20  y  -1.3651173657   21  z  -2.1940230537
  H       :    22  x  -1.8647836299   23  y  -0.4996681539   24  z  -2.1940230537


   Interatomic separations (in Angstrom):
   --------------------------------------

            C           C           H           H           H           H     
            ------      ------      ------      ------      ------      ------
 C     :    0.000000
 C     :    1.522652    0.000000
 H     :    1.097020    2.176955    0.000000
 H     :    1.097020    2.176955    1.769484    0.000000
 H     :    1.097020    2.176955    1.769484    1.769484    0.000000
 H     :    2.176955    1.097019    2.337319    2.992544    2.831884    0.000000
 H     :    2.176955    1.097020    2.992544    2.831885    2.337319    1.769484
 H     :    2.176955    1.097019    2.831885    2.337319    2.992544    1.769484

            H           H     
            ------      ------
 H     :    0.000000
 H     :    1.769484    0.000000


  Max    interatomic separation is    2.9925 Angstrom (    5.6551 Bohr)
  between atoms    7 and    3, "H     " and "H     ".

  Min HX interatomic separation is    1.0970 Angstrom (    2.0731 Bohr)

  Min YX interatomic separation is    1.5227 Angstrom (    2.8774 Bohr)


  Bond distances (Angstrom):
  --------------------------

                  atom 1     atom 2       distance
                  ------     ------       --------
  bond distance:  C          C            1.522652
  bond distance:  H          C            1.097020
  bond distance:  H          C            1.097020
  bond distance:  H          C            1.097020
  bond distance:  H          C            1.097019
  bond distance:  H          C            1.097020
  bond distance:  H          C            1.097019


  Bond angles (degrees):
  ----------------------

                  atom 1     atom 2     atom 3         angle
                  ------     ------     ------         -----
  bond angle:     C          C          H            111.368
  bond angle:     C          C          H            111.368
  bond angle:     C          C          H            111.368
  bond angle:     H          C          H            107.510
  bond angle:     H          C          H            107.510
  bond angle:     H          C          H            107.510
  bond angle:     C          C          H            111.368
  bond angle:     C          C          H            111.368
  bond angle:     C          C          H            111.368
  bond angle:     H          C          H            107.510
  bond angle:     H          C          H            107.510
  bond angle:     H          C          H            107.510




 Principal moments of inertia (u*A**2) and principal axes
 --------------------------------------------------------

   IA       6.311147         -0.000000    0.000000    1.000000
   IB      25.217578          0.873219    0.487328    0.000000
   IC      25.217579         -0.487328    0.873219   -0.000000


 Rotational constants
 --------------------

               A                   B                   C

          80077.1995          20040.7431          20040.7428 MHz
            2.671088            0.668487            0.668487 cm-1


@  Nuclear repulsion energy :   42.192467159107 Hartree


                     .---------------------------------------.
                     | Starting in Integral Section (HERMIT) |
                     `---------------------------------------'



 ***************************************************************************************
 ****************** Output from **INTEGRALS input processing (HERMIT) ******************
 ***************************************************************************************


 - Using defaults, no **INTEGRALS input found

 Default print level:        1

 Calculation of one- and two-electron Hamiltonian integrals.

 Center of mass  (bohr):      0.000000063385     -0.000000063385      0.000000000000
 Operator center (bohr):      0.000000000000      0.000000000000      0.000000000000
 Gauge origin    (bohr):      0.000000000000      0.000000000000      0.000000000000
 Dipole origin   (bohr):      0.000000000000      0.000000000000      0.000000000000

Calculation of 2-electron integrals are postponed until they are needed.


     ************************************************************************
     ************************** Output from HERINT **************************
     ************************************************************************



                      Nuclear contribution to dipole moments
                      --------------------------------------

                 au               Debye          C m (/(10**-30)

      x      0.00000189         0.00000480         0.00001602
      y     -0.00000189        -0.00000480        -0.00001602
      z      0.00000000         0.00000000         0.00000000


  Total CPU  time used in HERMIT:   0.03 seconds
  Total wall time used in HERMIT:   0.03 seconds


                        .----------------------------------.
                        | End of Integral Section (HERMIT) |
                        `----------------------------------'



                   .--------------------------------------------.
                   | Starting in Wave Function Section (SIRIUS) |
                   `--------------------------------------------'


 *** Output from Huckel module :

     Using EWMO model:          T
     Using EHT  model:          F
     Number of Huckel orbitals each symmetry:   16

 EWMO - Energy Weighted Maximum Overlap - is a Huckel type method,
        which normally is better than Extended Huckel Theory.
 Reference: Linderberg and Ohrn, Propagators in Quantum Chemistry (Wiley, 1973)

 Huckel EWMO eigenvalues for symmetry :  1
          -11.353788     -11.347921      -1.665653      -1.141300      -0.802169
           -0.802169      -0.528442      -0.516176      -0.516176      -0.138973
           -0.134417      -0.134417      -0.131202      -0.112202      -0.108697
           -0.108697

 **********************************************************************
 *SIRIUS* a direct, restricted step, second order MCSCF program       *
 **********************************************************************

 
     Date and time (Linux)  : Tue Feb 25 10:27:13 2025
     Host name              : s42n23.grendel.cscaa.dk                 

 Title lines from ".mol" input file:
     Ethane (C2H6) with dihedral angle 15°
     Property calculated with xxx/pcseg-1. Geo opt with wB97x/pcseg-1.

 Print level on unit LUPRI =   2 is   0
 Print level on unit LUW4  =   2 is   5

@    Restricted, closed shell Kohn-Sham DFT calculation.

@    Time-dependent Kohn-Sham DFT calculation (TD-DFT).

 Initial molecular orbitals are obtained according to
 ".MOSTART EWMO  " input option

     Wave function specification
     ============================
@    Wave function type        --- KS-DFT ---
@    Number of closed shell electrons          18
@    Number of electrons in active shells       0
@    Total charge of the molecule               0

@    Spin multiplicity and 2 M_S                1         0
@    Total number of symmetries                 1 (point group: C1 )
@    Reference state symmetry                   1 (irrep name : A  )
 
     This is a DFT calculation of type: PBE
 Weighted mixed functional:
                      PBEx:    1.00000
                      PBEc:    1.00000

     Orbital specifications
     ======================
@    Abelian symmetry species          All |    1
@                                          |  A  
                                       --- |  ---
@    Occupied SCF orbitals               9 |    9
@    Secondary orbitals                 49 |   49
@    Total number of orbitals           58 |   58
@    Number of basis functions          58 |   58

     Optimization information
     ========================
@    Number of configurations                 1
@    Number of orbital rotations            441
     ------------------------------------------
@    Total number of variables              442

     Maximum number of Fock   iterations      0
     Maximum number of DIIS   iterations     60
     Maximum number of QC-SCF iterations     60
     Threshold for SCF convergence     1.00D-05
 
     This is a DFT calculation of type: PBE
 Weighted mixed functional:
                      PBEx:    1.00000
                      PBEc:    1.00000


 ***********************************************
 ***** DIIS acceleration of SCF iterations *****
 ***********************************************

 C1-DIIS algorithm; max error vectors =    8

 Iter      Total energy        Error norm    Delta(E)  DIIS dim.
 -----------------------------------------------------------------------------

---> (Re)generating AOTWOINT


     ************************************************************************
     ************************** Output from HERINT **************************
     ************************************************************************


 Threshold for neglecting two-electron integrals:  1.00D-12
 HERMIT - Number of two-electron integrals written:     1353952 ( 92.4% )
 HERMIT - Megabytes written:                             15.519

  Total CPU  time used in TWOINT:   0.29 seconds
  Total wall time used in TWOINT:   0.29 seconds
  Time used in TWOINT     is       0.29 seconds
      K-S energy, electrons, error :    -12.394185131501  17.9999991754   -8.25D-07
@  1    -79.3236235228        2.22795D+00   -7.93D+01    1
      Virial theorem: -V/T =      2.034271
@    MULPOP   C       0.23; C       0.23; H      -0.08; H      -0.08; H      -0.08; H      -0.08; H      -0.08; H      -0.08; 
   1  Level shift: doubly occupied orbital energies shifted by -2.00D-01
 -----------------------------------------------------------------------------
      K-S energy, electrons, error :    -13.337567728871  17.9999981582   -1.84D-06
@  2    -79.4490524563        1.93491D+00   -1.25D-01    2
      Virial theorem: -V/T =      1.974555
@    MULPOP   C      -0.76; C      -0.76; H       0.25; H       0.25; H       0.25; H       0.25; H       0.25; H       0.25; 
   2  Level shift: doubly occupied orbital energies shifted by -2.00D-01
 -----------------------------------------------------------------------------
      K-S energy, electrons, error :    -13.019882072263  17.9999980883   -1.91D-06
@  3    -79.6746243947        2.75650D-01   -2.26D-01    3
      Virial theorem: -V/T =      2.001967
@    MULPOP   C      -0.40; C      -0.40; H       0.13; H       0.13; H       0.13; H       0.13; H       0.13; H       0.13; 
   3  Level shift: doubly occupied orbital energies shifted by -5.00D-02
 -----------------------------------------------------------------------------
      K-S energy, electrons, error :    -12.937984487176  17.9999981705   -1.83D-06
@  4    -79.6810988174        3.63711D-02   -6.47D-03    4
      Virial theorem: -V/T =      2.006790
@    MULPOP   C      -0.30; C      -0.30; H       0.10; H       0.10; H       0.10; H       0.10; H       0.10; H       0.10; 
   4  Level shift: doubly occupied orbital energies shifted by -1.25D-02
 -----------------------------------------------------------------------------
      K-S energy, electrons, error :    -12.941634024913  17.9999981661   -1.83D-06
@  5    -79.6811691143        1.23121D-02   -7.03D-05    5
      Virial theorem: -V/T =      2.006484
@    MULPOP   C      -0.30; C      -0.30; H       0.10; H       0.10; H       0.10; H       0.10; H       0.10; H       0.10; 
 -----------------------------------------------------------------------------
      K-S energy, electrons, error :    -12.943787429154  17.9999981648   -1.84D-06
@  6    -79.6811791948        5.01851D-04   -1.01D-05    6
      Virial theorem: -V/T =      2.006340
@    MULPOP   C      -0.30; C      -0.30; H       0.10; H       0.10; H       0.10; H       0.10; H       0.10; H       0.10; 
 -----------------------------------------------------------------------------
      K-S energy, electrons, error :    -12.943870579773  17.9999981646   -1.84D-06
@  7    -79.6811792061        2.98868D-04   -1.14D-08    7
      Virial theorem: -V/T =      2.006334
@    MULPOP   C      -0.30; C      -0.30; H       0.10; H       0.10; H       0.10; H       0.10; H       0.10; H       0.10; 
 -----------------------------------------------------------------------------
      K-S energy, electrons, error :    -12.943873505930  17.9999981647   -1.84D-06
@  8    -79.6811792117        2.12841D-05   -5.52D-09    8
      Virial theorem: -V/T =      2.006334
@    MULPOP   C      -0.30; C      -0.30; H       0.10; H       0.10; H       0.10; H       0.10; H       0.10; H       0.10; 
 -----------------------------------------------------------------------------
      K-S energy, electrons, error :    -12.943874937204  17.9999981647   -1.84D-06
@  9    -79.6811792117        2.42504D-06   -2.90D-11    8

@ *** DIIS converged in   9 iterations !
@     Converged SCF energy, gradient:    -79.681179211691    2.43D-06
    - total time used in SIRFCK :              0.40 seconds


 *** SCF orbital energy analysis ***

 Only the 20 lowest virtual orbital energies printed in each symmetry.

 Number of electrons        :   18
 Closed shell orbitals      :    9

 Sym       Kohn-Sham orbital energies

1 A      -9.87276572    -9.87268341    -0.68265019    -0.55060154    -0.38732450
         -0.38732404    -0.32754325    -0.29543402    -0.29543383     0.03266459
          0.07037134     0.07037177     0.07486502     0.14710365     0.14710368
          0.19009552     0.34508898     0.35057500     0.35057909     0.48685203
          0.48685244     0.54999277     0.58377258     0.58377365     0.60221527
          0.60221555     0.61886860     0.64539125     0.88497999

    E(LUMO) :     0.03266459 au (symmetry 1)
  - E(HOMO) :    -0.29543383 au (symmetry 1)
  ------------------------------------------
    gap     :     0.32809842 au

 --- Writing SIRIFC interface file

--------------------------------------------------------------------------------


     .-----------------------------------------------.
     | DFT KT IPs [a.u. & eV] from Koopmans' theorem |
     `-----------------------------------------------'


     DFT KT symmetry 1 ( A  ) in point group C1  -- 9 principal poles with pole strength 1

   ============  ============  ============  ============  ============
       9.872766      9.872683      0.682650      0.550602      0.387324
     268.651621    268.649382     18.575857     14.982630     10.539636
   ============  ============  ============  ============  ============

   ============  ============  ============  ============
       0.387324      0.327543      0.295434      0.295434
      10.539623      8.912905      8.039169      8.039163
   ============  ============  ============  ============

@ Summary of DFT KT ionization potentials [eV]:

@ Symmetry 1 (A  ) :   268.652     268.649      18.576      14.983      10.540
@                       10.540       8.913       8.039       8.039

  === End of DFT KT output ===
--------------------------------------------------------------------------------


 CPU and wall time for SCF :      16.544      16.599


                       .-----------------------------------.
                       | --- Final results from SIRIUS --- |
                       `-----------------------------------'


@    Spin multiplicity:           1
@    Spatial symmetry:            1 ( irrep  A   in C1  )
@    Total charge of molecule:    0

@    Final DFT energy:            -79.681179211691                 
@    Nuclear repulsion:            42.192467159107
@    Electronic energy:          -121.873646370798

@    Final gradient norm:           0.000002425040

 
     Date and time (Linux)  : Tue Feb 25 10:27:29 2025
     Host name              : s42n23.grendel.cscaa.dk                 

File label for MO orbitals:  25Feb25   FOCKDIIS

 (Only coefficients > 0.0100 are printed.)

 Molecular orbitals for symmetry species 1  (A  )
 ------------------------------------------------

    Orbital         1        2        3        4        5        6        7
   1 C   :1s    -0.7034  -0.7013   0.1583   0.1368  -0.0000   0.0000   0.0165
   2 C   :1s    -0.0261  -0.0271  -0.3051  -0.2819   0.0000  -0.0000  -0.0461
   3 C   :1s     0.0130   0.0203  -0.1843  -0.1490  -0.0000   0.0000  -0.0311
   4 C   :2px   -0.0000  -0.0000  -0.0000  -0.0000   0.1781  -0.2689  -0.0000
   5 C   :2py    0.0000   0.0000   0.0000  -0.0000   0.2689   0.1781  -0.0000
   6 C   :2pz   -0.0011   0.0003   0.0705  -0.1284   0.0000   0.0000   0.4233
   7 C   :2px   -0.0000  -0.0000   0.0000   0.0000   0.0834  -0.1176   0.0000
   8 C   :2py   -0.0000  -0.0000   0.0000   0.0000   0.1176   0.0834   0.0000
   9 C   :2pz    0.0006  -0.0030   0.0214  -0.0626   0.0000   0.0000   0.1914
  12 C   :3d0    0.0010  -0.0005  -0.0093   0.0090  -0.0000   0.0000  -0.0127
  15 C   :1s    -0.7014   0.7033   0.1583  -0.1368  -0.0000   0.0000   0.0165
  16 C   :1s    -0.0260   0.0272  -0.3051   0.2819   0.0000  -0.0000  -0.0461
  17 C   :1s     0.0129  -0.0203  -0.1843   0.1490   0.0000   0.0000  -0.0311
  18 C   :2px   -0.0000   0.0000   0.0000  -0.0000   0.1811  -0.2669  -0.0000
  19 C   :2py    0.0000  -0.0000  -0.0000   0.0000   0.2669   0.1811  -0.0000
  20 C   :2pz    0.0011   0.0003  -0.0705  -0.1284  -0.0000  -0.0000  -0.4233
  21 C   :2px    0.0000   0.0000   0.0000   0.0000   0.0771  -0.1218   0.0000
  22 C   :2py   -0.0000   0.0000   0.0000   0.0000   0.1218   0.0771   0.0000
  23 C   :2pz   -0.0006  -0.0030  -0.0214  -0.0626  -0.0000  -0.0000  -0.1914
  26 C   :3d0    0.0010   0.0005  -0.0093  -0.0090  -0.0000  -0.0000  -0.0127
  29 H   :1s     0.0010   0.0006  -0.1105  -0.1608   0.1993   0.1304   0.1173
  30 H   :1s    -0.0024  -0.0021  -0.0032  -0.0150   0.0476   0.0258   0.0460
  32 H   :2py   -0.0010  -0.0009   0.0109   0.0128  -0.0053  -0.0036  -0.0067
  34 H   :1s     0.0010   0.0006  -0.1105  -0.1608  -0.2125   0.1074   0.1173
  35 H   :1s    -0.0024  -0.0021  -0.0032  -0.0150  -0.0461   0.0283   0.0460
  36 H   :2px    0.0008   0.0008  -0.0094  -0.0111  -0.0067  -0.0011   0.0058
  39 H   :1s     0.0010   0.0006  -0.1105  -0.1608   0.0133  -0.2377   0.1173
  40 H   :1s    -0.0024  -0.0021  -0.0032  -0.0150  -0.0014  -0.0541   0.0460
  41 H   :2px   -0.0008  -0.0008   0.0094   0.0111   0.0035   0.0058  -0.0058
  44 H   :1s     0.0010  -0.0006  -0.1105   0.1608   0.2245   0.0794   0.1173
  45 H   :1s    -0.0024   0.0021  -0.0032   0.0150   0.0494   0.0222   0.0460
  47 H   :2py   -0.0009   0.0009   0.0105  -0.0124  -0.0065  -0.0001  -0.0064
  49 H   :1s     0.0010  -0.0006  -0.1105   0.1608  -0.0435  -0.2341   0.1173
  50 H   :1s    -0.0024   0.0021  -0.0032   0.0150  -0.0055  -0.0538   0.0460
  54 H   :1s     0.0010  -0.0006  -0.1105   0.1608  -0.1810   0.1547   0.1173
  55 H   :1s    -0.0024   0.0021  -0.0032   0.0150  -0.0439   0.0317   0.0460
  56 H   :2px    0.0009  -0.0009  -0.0105   0.0124  -0.0059   0.0026   0.0065

    Orbital         8        9       10       11       12       13       14
   1 C   :1s     0.0000  -0.0000  -0.0828  -0.0000  -0.0000  -0.1021   0.0000
   2 C   :1s     0.0000  -0.0000   0.1246   0.0000   0.0000   0.1473   0.0000
   3 C   :1s     0.0000   0.0000   1.2538   0.0001   0.0000   1.6689  -0.0000
   4 C   :2px    0.1554   0.2777  -0.0000   0.1950   0.1678  -0.0000  -0.2357
   5 C   :2py    0.2777  -0.1554   0.0000  -0.1678   0.1950   0.0000   0.1618
   6 C   :2pz   -0.0000   0.0000   0.1265   0.0000  -0.0000   0.0182   0.0000
   7 C   :2px    0.0786   0.1444  -0.0000   0.5727   0.4260  -0.0000  -0.8875
   8 C   :2py    0.1444  -0.0786   0.0000  -0.4261   0.5727  -0.0000   0.7115
   9 C   :2pz   -0.0000   0.0000   0.3529   0.0000   0.0000  -0.0581   0.0000
  10 C   :3d2-  -0.0057  -0.0081  -0.0000   0.0153   0.0102  -0.0000  -0.0047
  11 C   :3d1-   0.0158  -0.0091  -0.0000   0.0157  -0.0140  -0.0000   0.0039
  12 C   :3d0   -0.0000  -0.0000   0.0105  -0.0000  -0.0000  -0.0085   0.0000
  13 C   :3d1+   0.0091   0.0158   0.0000  -0.0140  -0.0157   0.0000   0.0000
  14 C   :3d2+  -0.0081   0.0057   0.0000  -0.0102   0.0153  -0.0000   0.0090
  15 C   :1s    -0.0000   0.0000  -0.0828   0.0000   0.0000   0.1021  -0.0000
  16 C   :1s     0.0000  -0.0000   0.1246  -0.0000  -0.0000  -0.1473   0.0000
  17 C   :1s    -0.0000   0.0000   1.2538  -0.0000  -0.0000  -1.6689   0.0000
  18 C   :2px   -0.1610  -0.2745  -0.0000   0.1562   0.2045  -0.0000   0.1809
  19 C   :2py   -0.2745   0.1610   0.0000  -0.2045   0.1562   0.0000  -0.2214
  20 C   :2pz    0.0000  -0.0000  -0.1265  -0.0000   0.0000   0.0182   0.0000
  21 C   :2px   -0.0848  -0.1408  -0.0000   0.3919   0.5966  -0.0000   0.7832
  22 C   :2py   -0.1408   0.0848   0.0000  -0.5966   0.3919   0.0000  -0.8249
  23 C   :2pz   -0.0000  -0.0000  -0.3529  -0.0000   0.0000  -0.0581   0.0000
  24 C   :3d2-  -0.0034   0.0092  -0.0000   0.0178   0.0046  -0.0000   0.0094
  25 C   :3d1-   0.0159  -0.0090   0.0000  -0.0149   0.0148   0.0000  -0.0004
  26 C   :3d0    0.0000  -0.0000   0.0105   0.0000   0.0000   0.0085  -0.0000
  27 C   :3d1+   0.0090   0.0159  -0.0000   0.0148   0.0149  -0.0000  -0.0039
  28 C   :3d2+   0.0092   0.0034   0.0000  -0.0046   0.0178  -0.0000   0.0038
  29 H   :1s     0.2585  -0.1473  -0.0334   0.0754  -0.0883  -0.0284  -0.0334
  30 H   :1s     0.1070  -0.0636  -0.5767   0.8054  -0.9518  -0.6917  -1.0352
  32 H   :2py   -0.0054   0.0028  -0.0113   0.0090  -0.0114  -0.0062  -0.0084
  34 H   :1s    -0.2568  -0.1503  -0.0334   0.0387   0.1094  -0.0284  -0.0028
  35 H   :1s    -0.1086  -0.0608  -0.5767   0.4215   1.1734  -0.6918  -0.7113
  36 H   :2px   -0.0068   0.0011   0.0099  -0.0012  -0.0136   0.0053   0.0007
  39 H   :1s    -0.0017   0.2976  -0.0334  -0.1141  -0.0211  -0.0283   0.0362
  40 H   :1s     0.0016   0.1245  -0.5767  -1.2270  -0.2216  -0.6917   1.7464
  41 H   :2px    0.0048  -0.0051  -0.0097  -0.0124   0.0022  -0.0054   0.0133
  44 H   :1s    -0.2875   0.0767  -0.0334   0.0712  -0.0917   0.0284   0.0099
  45 H   :1s    -0.1209   0.0298  -0.5767   0.7694  -0.9811   0.6917   0.9845
  47 H   :2py    0.0063   0.0006  -0.0110   0.0076  -0.0122   0.0059   0.0050
  49 H   :1s     0.0773  -0.2874  -0.0334  -0.1150  -0.0158   0.0284  -0.0388
  50 H   :1s     0.0346  -0.1196  -0.5767  -1.2343  -0.1757   0.6918  -1.7519
  51 H   :2px   -0.0072   0.0026  -0.0081  -0.0118   0.0036   0.0042  -0.0080
  52 H   :2py   -0.0053  -0.0057   0.0079   0.0084   0.0071  -0.0045   0.0112
  54 H   :1s     0.2102   0.2106  -0.0334   0.0438   0.1075   0.0283   0.0289
  55 H   :1s     0.0863   0.0898  -0.5767   0.4650   1.1569   0.6917   0.7674
  56 H   :2px    0.0059   0.0023   0.0109  -0.0028  -0.0136  -0.0060  -0.0049

    Orbital        15       16       17       18       19
   1 C   :1s     0.0000  -0.0492  -0.0106  -0.0000  -0.0000
   2 C   :1s    -0.0000   0.0379   0.1432   0.0000   0.0000
   3 C   :1s     0.0000   1.4132   0.4412   0.0001   0.0000
   4 C   :2px   -0.1618   0.0000   0.0000   0.0040  -0.1460
   5 C   :2py   -0.2357   0.0000  -0.0000   0.1460   0.0040
   6 C   :2pz   -0.0000  -0.3724  -0.4573  -0.0001  -0.0000
   7 C   :2px   -0.7115  -0.0000   0.0000  -0.1530   0.5907
   8 C   :2py   -0.8875   0.0000   0.0001  -0.5908  -0.1530
   9 C   :2pz   -0.0000  -2.1128   0.9285   0.0001   0.0000
  10 C   :3d2-  -0.0090   0.0000   0.0000  -0.0215   0.0593
  11 C   :3d1-   0.0000   0.0000  -0.0000   0.0480   0.0216
  12 C   :3d0   -0.0000  -0.0420   0.0673   0.0000   0.0000
  13 C   :3d1+  -0.0039  -0.0000  -0.0000   0.0216  -0.0480
  14 C   :3d2+  -0.0047   0.0000   0.0000  -0.0593  -0.0215
  15 C   :1s     0.0000   0.0492  -0.0106  -0.0000  -0.0000
  16 C   :1s    -0.0000  -0.0379   0.1432   0.0000   0.0000
  17 C   :1s    -0.0000  -1.4132   0.4412   0.0001   0.0000
  18 C   :2px    0.2214   0.0000  -0.0000   0.1033  -0.1032
  19 C   :2py    0.1809  -0.0000  -0.0000   0.1032   0.1033
  20 C   :2pz    0.0000  -0.3724   0.4573   0.0001   0.0000
  21 C   :2px    0.8249   0.0000   0.0000  -0.3243   0.5169
  22 C   :2py    0.7832  -0.0000   0.0001  -0.5169  -0.3243
  23 C   :2pz   -0.0000  -2.1128  -0.9285  -0.0001  -0.0000
  24 C   :3d2-  -0.0038   0.0000  -0.0000   0.0198   0.0599
  25 C   :3d1-  -0.0039  -0.0000   0.0000  -0.0486  -0.0201
  26 C   :3d0   -0.0000   0.0420   0.0673   0.0000   0.0000
  27 C   :3d1+   0.0004   0.0000   0.0000  -0.0201   0.0486
  28 C   :3d2+   0.0094   0.0000   0.0000  -0.0599   0.0198
  29 H   :1s     0.0226   0.0717  -0.1947   0.5638   0.2211
  30 H   :1s     1.4190   0.5279  -0.0103  -0.1223  -0.0169
  31 H   :2px   -0.0062  -0.0003  -0.0002  -0.0099   0.0223
  32 H   :2py    0.0106   0.0126  -0.0006  -0.0012   0.0029
  33 H   :2pz    0.0080  -0.0127   0.0159   0.0154   0.0120
  34 H   :1s    -0.0402   0.0717  -0.1946  -0.4734   0.3777
  35 H   :1s    -1.6060   0.5279  -0.0103   0.0758  -0.0975
  36 H   :2px    0.0110  -0.0108   0.0006   0.0088   0.0121
  37 H   :2py    0.0061  -0.0065   0.0001  -0.0115  -0.0158
  38 H   :2pz   -0.0074  -0.0127   0.0159  -0.0181   0.0073
  39 H   :1s     0.0177   0.0717  -0.1946  -0.0905  -0.5988
  40 H   :1s     0.1870   0.5279  -0.0103   0.0465   0.1144
  41 H   :2px   -0.0015   0.0111  -0.0004  -0.0094   0.0010
  42 H   :2py   -0.0066  -0.0061   0.0004  -0.0226   0.0024
  43 H   :2pz   -0.0006  -0.0127   0.0159   0.0027  -0.0194
  44 H   :1s    -0.0391  -0.0717  -0.1947   0.5960   0.1074
  45 H   :1s    -1.4546  -0.5279  -0.0103  -0.1130  -0.0498
  46 H   :2px   -0.0015  -0.0035   0.0000  -0.0030   0.0225
  47 H   :2py   -0.0115  -0.0121  -0.0006   0.0013  -0.0093
  48 H   :2pz    0.0064  -0.0127  -0.0159  -0.0194   0.0022
  49 H   :1s     0.0110  -0.0717  -0.1946  -0.2050  -0.5698
  50 H   :1s    -0.1253  -0.5279  -0.0103   0.0134   0.1228
  51 H   :2px    0.0046  -0.0087  -0.0005  -0.0181   0.0074
  52 H   :2py    0.0052   0.0091   0.0003  -0.0139   0.0057
  53 H   :2pz    0.0021  -0.0127  -0.0159   0.0116   0.0158
  54 H   :1s     0.0281  -0.0717  -0.1946  -0.3910   0.4625
  55 H   :1s     1.5799  -0.5279  -0.0103   0.0996  -0.0730
  56 H   :2px   -0.0129   0.0123   0.0005   0.0026   0.0019
  57 H   :2py    0.0022   0.0030   0.0003  -0.0193  -0.0149
  58 H   :2pz   -0.0085  -0.0127  -0.0159   0.0078  -0.0179

  Total CPU  time used in SIRIUS :  16.57 seconds
  Total wall time used in SIRIUS :  16.62 seconds

 
     Date and time (Linux)  : Tue Feb 25 10:27:29 2025
     Host name              : s42n23.grendel.cscaa.dk                 


                     .---------------------------------------.
                     | End of Wave Function Section (SIRIUS) |
                     `---------------------------------------'



                 .------------------------------------------------.
                 | Starting in Dynamic Property Section (RESPONS) |
                 `------------------------------------------------'


 ----------------------------------------------------------------------------------------
  RESPONSE  -  an MCSCF, MC-srDFT, DFT, SOPPA and SOPPA-srDFT response property program
 ----------------------------------------------------------------------------------------


 -------- OUTPUT FROM RESPONSE INPUT PROCESSING --------




 Linear Response calculation
 ---------------------------

 Print level                                    : IPRLR  =   2
 Maximum number of iterations                   : MAXITL =  60
 Threshold for relative convergence             : THCLR  = 1.000D-03
 Maximum iterations in optimal orbital algorithm: MAXITO =   5

  1 B-frequencies  0.000000D+00
  CPU  time used in dftint     is   2.34 seconds
  WALL time used in dftint     is   2.34 seconds
  grid points, tot elec.
    168360       17.9999981647
  
  MBIS converged!
  
  Final converged results
  Qatom
    1    -0.28771200
    2    -0.28771978
    3     0.09590528
    4     0.09590428
    5     0.09590538
    6     0.09590644
    7     0.09590596
    8     0.09590647
  CPU  time used in mbis       is   9.30 seconds
  WALL time used in mbis       is   9.33 seconds
  CPU  time used in num_aoint_opt is   2.11 seconds
  WALL time used in num_aoint_opt is   2.12 seconds

    8 second order properties calculated with symmetry no.    1 and labels:

          AM010600
          AM020600
          AM030100
          AM040100
          AM050100
          AM060100
          AM070100
          AM080100

 INFO SIR_INTOPEN, old integral transformation not found as expected, ICASE = 2
 - ICASE = 1: MO integral file MOTWOINT does not exist
 - ICASE = 2: no MO integrals on MOTWOINT
 - ICASE = 3: transformation level on MOTWOINT not sufficient

 2-el. integral transformation level 4: Total CPU and WALL times (sec)       0.344       0.345

 Sorting integrals to Dirac format: Total CPU and WALL times (sec)       0.007       0.007


   SCF energy         :      -79.681179211691472
 -- inactive part     :     -121.873646370798127
 -- nuclear repulsion :       42.192467159106663


                    *****************************************
                    *** DFT response calculation (TD-DFT) ***
                    *****************************************

 ----------------------------------------------------------------
 ----- Linear response calculation
 ----- Symmetry of excitation/property operator(s)    1  ( A  )
 ----------------------------------------------------------------

 Number of excitations of this symmetry            0
 Number of response properties of this symmetry    8
 Number of C6/C8 properties of this symmetry       0


 Perturbation symmetry.     KSYMOP:           1
 Perturbation spin symmetry.TRPLET:           F
 Orbital variables.         KZWOPT:         441
 Configuration variables.   KZCONF:           0
 Total number of variables. KZVAR :         441


 RSPLR -- linear response calculation for symmetry 1  ( A  )
 RSPLR -- operator label : AM010600
 RSPLR -- operator spin  :   0
 RSPLR -- frequencies    :     0.000000



 ---  SOLVING SETS OF LINEAR EQUATIONS FOR LINEAR RESPONSE PROPERTIES ---

 Operator symmetry = 1  ( A  ); triplet =   F


 ** RSPCTL MICROITERATION NUMBER    1

       No.  Residual tot.,    conf., and orb.    Bnorm      Frequency 
      ----------------------------------------------------------------
         1    4.31326D-01  0.00D+00  4.31D-01  5.30D-01    0.00000D+00

 ** RSPCTL MICROITERATION NUMBER    2

       No.  Residual tot.,    conf., and orb.    Bnorm      Frequency 
      ----------------------------------------------------------------
         1    4.62517D-02  0.00D+00  4.63D-02  6.13D-01    0.00000D+00

 ** RSPCTL MICROITERATION NUMBER    3

       No.  Residual tot.,    conf., and orb.    Bnorm      Frequency 
      ----------------------------------------------------------------
         1    1.88353D-02  0.00D+00  1.88D-02  6.16D-01    0.00000D+00

 ** RSPCTL MICROITERATION NUMBER    4

       No.  Residual tot.,    conf., and orb.    Bnorm      Frequency 
      ----------------------------------------------------------------
         1    2.24199D-03  0.00D+00  2.24D-03  6.17D-01    0.00000D+00

 ** RSPCTL MICROITERATION NUMBER    5

       No.  Residual tot.,    conf., and orb.    Bnorm      Frequency 
      ----------------------------------------------------------------
         1    3.42793D-04  0.00D+00  3.43D-04  6.17D-01    0.00000D+00

 *** THE REQUESTED    1 SOLUTION VECTORS CONVERGED

 Convergence of RSP solution vectors, threshold = 1.00D-03
 ---------------------------------------------------------------
 (dimension of paired reduced space:   10)
 RSP solution vector no.    1; norm of residual   5.55D-04

 *** RSPCTL MICROITERATIONS CONVERGED


 RSPLR -- linear response calculation for symmetry 1  ( A  )
 RSPLR -- operator label : AM020600
 RSPLR -- operator spin  :   0
 RSPLR -- frequencies    :     0.000000



 ---  SOLVING SETS OF LINEAR EQUATIONS FOR LINEAR RESPONSE PROPERTIES ---

 Operator symmetry = 1  ( A  ); triplet =   F


 ** RSPCTL MICROITERATION NUMBER    1

       No.  Residual tot.,    conf., and orb.    Bnorm      Frequency 
      ----------------------------------------------------------------
         1    4.31327D-01  0.00D+00  4.31D-01  5.30D-01    0.00000D+00

 ** RSPCTL MICROITERATION NUMBER    2

       No.  Residual tot.,    conf., and orb.    Bnorm      Frequency 
      ----------------------------------------------------------------
         1    4.62518D-02  0.00D+00  4.63D-02  6.13D-01    0.00000D+00

 ** RSPCTL MICROITERATION NUMBER    3

       No.  Residual tot.,    conf., and orb.    Bnorm      Frequency 
      ----------------------------------------------------------------
         1    1.88353D-02  0.00D+00  1.88D-02  6.16D-01    0.00000D+00

 ** RSPCTL MICROITERATION NUMBER    4

       No.  Residual tot.,    conf., and orb.    Bnorm      Frequency 
      ----------------------------------------------------------------
         1    2.24198D-03  0.00D+00  2.24D-03  6.17D-01    0.00000D+00

 ** RSPCTL MICROITERATION NUMBER    5

       No.  Residual tot.,    conf., and orb.    Bnorm      Frequency 
      ----------------------------------------------------------------
         1    3.42795D-04  0.00D+00  3.43D-04  6.17D-01    0.00000D+00

 *** THE REQUESTED    1 SOLUTION VECTORS CONVERGED

 Convergence of RSP solution vectors, threshold = 1.00D-03
 ---------------------------------------------------------------
 (dimension of paired reduced space:   10)
 RSP solution vector no.    1; norm of residual   5.55D-04

 *** RSPCTL MICROITERATIONS CONVERGED


 RSPLR -- linear response calculation for symmetry 1  ( A  )
 RSPLR -- operator label : AM030100
 RSPLR -- operator spin  :   0
 RSPLR -- frequencies    :     0.000000



 ---  SOLVING SETS OF LINEAR EQUATIONS FOR LINEAR RESPONSE PROPERTIES ---

 Operator symmetry = 1  ( A  ); triplet =   F


 ** RSPCTL MICROITERATION NUMBER    1

       No.  Residual tot.,    conf., and orb.    Bnorm      Frequency 
      ----------------------------------------------------------------
         1    2.75770D-01  0.00D+00  2.76D-01  4.77D-01    0.00000D+00

 ** RSPCTL MICROITERATION NUMBER    2

       No.  Residual tot.,    conf., and orb.    Bnorm      Frequency 
      ----------------------------------------------------------------
         1    6.55277D-02  0.00D+00  6.55D-02  5.20D-01    0.00000D+00

 ** RSPCTL MICROITERATION NUMBER    3

       No.  Residual tot.,    conf., and orb.    Bnorm      Frequency 
      ----------------------------------------------------------------
         1    1.69679D-02  0.00D+00  1.70D-02  5.29D-01    0.00000D+00

 ** RSPCTL MICROITERATION NUMBER    4

       No.  Residual tot.,    conf., and orb.    Bnorm      Frequency 
      ----------------------------------------------------------------
         1    3.26018D-03  0.00D+00  3.26D-03  5.31D-01    0.00000D+00

 ** RSPCTL MICROITERATION NUMBER    5

       No.  Residual tot.,    conf., and orb.    Bnorm      Frequency 
      ----------------------------------------------------------------
         1    9.93412D-04  0.00D+00  9.93D-04  5.31D-01    0.00000D+00

 ** RSPCTL MICROITERATION NUMBER    6

       No.  Residual tot.,    conf., and orb.    Bnorm      Frequency 
      ----------------------------------------------------------------
         1    1.72766D-04  0.00D+00  1.73D-04  5.32D-01    0.00000D+00

 *** THE REQUESTED    1 SOLUTION VECTORS CONVERGED

 Convergence of RSP solution vectors, threshold = 1.00D-03
 ---------------------------------------------------------------
 (dimension of paired reduced space:   12)
 RSP solution vector no.    1; norm of residual   3.25D-04

 *** RSPCTL MICROITERATIONS CONVERGED


 RSPLR -- linear response calculation for symmetry 1  ( A  )
 RSPLR -- operator label : AM040100
 RSPLR -- operator spin  :   0
 RSPLR -- frequencies    :     0.000000



 ---  SOLVING SETS OF LINEAR EQUATIONS FOR LINEAR RESPONSE PROPERTIES ---

 Operator symmetry = 1  ( A  ); triplet =   F


 ** RSPCTL MICROITERATION NUMBER    1

       No.  Residual tot.,    conf., and orb.    Bnorm      Frequency 
      ----------------------------------------------------------------
         1    2.75770D-01  0.00D+00  2.76D-01  4.77D-01    0.00000D+00

 ** RSPCTL MICROITERATION NUMBER    2

       No.  Residual tot.,    conf., and orb.    Bnorm      Frequency 
      ----------------------------------------------------------------
         1    6.55276D-02  0.00D+00  6.55D-02  5.20D-01    0.00000D+00

 ** RSPCTL MICROITERATION NUMBER    3

       No.  Residual tot.,    conf., and orb.    Bnorm      Frequency 
      ----------------------------------------------------------------
         1    1.69679D-02  0.00D+00  1.70D-02  5.29D-01    0.00000D+00

 ** RSPCTL MICROITERATION NUMBER    4

       No.  Residual tot.,    conf., and orb.    Bnorm      Frequency 
      ----------------------------------------------------------------
         1    3.26018D-03  0.00D+00  3.26D-03  5.31D-01    0.00000D+00

 ** RSPCTL MICROITERATION NUMBER    5

       No.  Residual tot.,    conf., and orb.    Bnorm      Frequency 
      ----------------------------------------------------------------
         1    9.93413D-04  0.00D+00  9.93D-04  5.31D-01    0.00000D+00

 ** RSPCTL MICROITERATION NUMBER    6

       No.  Residual tot.,    conf., and orb.    Bnorm      Frequency 
      ----------------------------------------------------------------
         1    1.72767D-04  0.00D+00  1.73D-04  5.32D-01    0.00000D+00

 *** THE REQUESTED    1 SOLUTION VECTORS CONVERGED

 Convergence of RSP solution vectors, threshold = 1.00D-03
 ---------------------------------------------------------------
 (dimension of paired reduced space:   12)
 RSP solution vector no.    1; norm of residual   3.25D-04

 *** RSPCTL MICROITERATIONS CONVERGED


 RSPLR -- linear response calculation for symmetry 1  ( A  )
 RSPLR -- operator label : AM050100
 RSPLR -- operator spin  :   0
 RSPLR -- frequencies    :     0.000000



 ---  SOLVING SETS OF LINEAR EQUATIONS FOR LINEAR RESPONSE PROPERTIES ---

 Operator symmetry = 1  ( A  ); triplet =   F


 ** RSPCTL MICROITERATION NUMBER    1

       No.  Residual tot.,    conf., and orb.    Bnorm      Frequency 
      ----------------------------------------------------------------
         1    2.75770D-01  0.00D+00  2.76D-01  4.77D-01    0.00000D+00

 ** RSPCTL MICROITERATION NUMBER    2

       No.  Residual tot.,    conf., and orb.    Bnorm      Frequency 
      ----------------------------------------------------------------
         1    6.55276D-02  0.00D+00  6.55D-02  5.20D-01    0.00000D+00

 ** RSPCTL MICROITERATION NUMBER    3

       No.  Residual tot.,    conf., and orb.    Bnorm      Frequency 
      ----------------------------------------------------------------
         1    1.69678D-02  0.00D+00  1.70D-02  5.29D-01    0.00000D+00

 ** RSPCTL MICROITERATION NUMBER    4

       No.  Residual tot.,    conf., and orb.    Bnorm      Frequency 
      ----------------------------------------------------------------
         1    3.26018D-03  0.00D+00  3.26D-03  5.31D-01    0.00000D+00

 ** RSPCTL MICROITERATION NUMBER    5

       No.  Residual tot.,    conf., and orb.    Bnorm      Frequency 
      ----------------------------------------------------------------
         1    9.93412D-04  0.00D+00  9.93D-04  5.31D-01    0.00000D+00

 ** RSPCTL MICROITERATION NUMBER    6

       No.  Residual tot.,    conf., and orb.    Bnorm      Frequency 
      ----------------------------------------------------------------
         1    1.72766D-04  0.00D+00  1.73D-04  5.32D-01    0.00000D+00

 *** THE REQUESTED    1 SOLUTION VECTORS CONVERGED

 Convergence of RSP solution vectors, threshold = 1.00D-03
 ---------------------------------------------------------------
 (dimension of paired reduced space:   12)
 RSP solution vector no.    1; norm of residual   3.25D-04

 *** RSPCTL MICROITERATIONS CONVERGED


 RSPLR -- linear response calculation for symmetry 1  ( A  )
 RSPLR -- operator label : AM060100
 RSPLR -- operator spin  :   0
 RSPLR -- frequencies    :     0.000000



 ---  SOLVING SETS OF LINEAR EQUATIONS FOR LINEAR RESPONSE PROPERTIES ---

 Operator symmetry = 1  ( A  ); triplet =   F


 ** RSPCTL MICROITERATION NUMBER    1

       No.  Residual tot.,    conf., and orb.    Bnorm      Frequency 
      ----------------------------------------------------------------
         1    2.75769D-01  0.00D+00  2.76D-01  4.77D-01    0.00000D+00

 ** RSPCTL MICROITERATION NUMBER    2

       No.  Residual tot.,    conf., and orb.    Bnorm      Frequency 
      ----------------------------------------------------------------
         1    6.55276D-02  0.00D+00  6.55D-02  5.20D-01    0.00000D+00

 ** RSPCTL MICROITERATION NUMBER    3

       No.  Residual tot.,    conf., and orb.    Bnorm      Frequency 
      ----------------------------------------------------------------
         1    1.69678D-02  0.00D+00  1.70D-02  5.29D-01    0.00000D+00

 ** RSPCTL MICROITERATION NUMBER    4

       No.  Residual tot.,    conf., and orb.    Bnorm      Frequency 
      ----------------------------------------------------------------
         1    3.26020D-03  0.00D+00  3.26D-03  5.31D-01    0.00000D+00

 ** RSPCTL MICROITERATION NUMBER    5

       No.  Residual tot.,    conf., and orb.    Bnorm      Frequency 
      ----------------------------------------------------------------
         1    9.93417D-04  0.00D+00  9.93D-04  5.31D-01    0.00000D+00

 ** RSPCTL MICROITERATION NUMBER    6

       No.  Residual tot.,    conf., and orb.    Bnorm      Frequency 
      ----------------------------------------------------------------
         1    1.72766D-04  0.00D+00  1.73D-04  5.32D-01    0.00000D+00

 *** THE REQUESTED    1 SOLUTION VECTORS CONVERGED

 Convergence of RSP solution vectors, threshold = 1.00D-03
 ---------------------------------------------------------------
 (dimension of paired reduced space:   12)
 RSP solution vector no.    1; norm of residual   3.25D-04

 *** RSPCTL MICROITERATIONS CONVERGED


 RSPLR -- linear response calculation for symmetry 1  ( A  )
 RSPLR -- operator label : AM070100
 RSPLR -- operator spin  :   0
 RSPLR -- frequencies    :     0.000000



 ---  SOLVING SETS OF LINEAR EQUATIONS FOR LINEAR RESPONSE PROPERTIES ---

 Operator symmetry = 1  ( A  ); triplet =   F


 ** RSPCTL MICROITERATION NUMBER    1

       No.  Residual tot.,    conf., and orb.    Bnorm      Frequency 
      ----------------------------------------------------------------
         1    2.75770D-01  0.00D+00  2.76D-01  4.77D-01    0.00000D+00

 ** RSPCTL MICROITERATION NUMBER    2

       No.  Residual tot.,    conf., and orb.    Bnorm      Frequency 
      ----------------------------------------------------------------
         1    6.55275D-02  0.00D+00  6.55D-02  5.20D-01    0.00000D+00

 ** RSPCTL MICROITERATION NUMBER    3

       No.  Residual tot.,    conf., and orb.    Bnorm      Frequency 
      ----------------------------------------------------------------
         1    1.69678D-02  0.00D+00  1.70D-02  5.29D-01    0.00000D+00

 ** RSPCTL MICROITERATION NUMBER    4

       No.  Residual tot.,    conf., and orb.    Bnorm      Frequency 
      ----------------------------------------------------------------
         1    3.26021D-03  0.00D+00  3.26D-03  5.31D-01    0.00000D+00

 ** RSPCTL MICROITERATION NUMBER    5

       No.  Residual tot.,    conf., and orb.    Bnorm      Frequency 
      ----------------------------------------------------------------
         1    9.93419D-04  0.00D+00  9.93D-04  5.31D-01    0.00000D+00

 ** RSPCTL MICROITERATION NUMBER    6

       No.  Residual tot.,    conf., and orb.    Bnorm      Frequency 
      ----------------------------------------------------------------
         1    1.72766D-04  0.00D+00  1.73D-04  5.32D-01    0.00000D+00

 *** THE REQUESTED    1 SOLUTION VECTORS CONVERGED

 Convergence of RSP solution vectors, threshold = 1.00D-03
 ---------------------------------------------------------------
 (dimension of paired reduced space:   12)
 RSP solution vector no.    1; norm of residual   3.25D-04

 *** RSPCTL MICROITERATIONS CONVERGED


 RSPLR -- linear response calculation for symmetry 1  ( A  )
 RSPLR -- operator label : AM080100
 RSPLR -- operator spin  :   0
 RSPLR -- frequencies    :     0.000000



 ---  SOLVING SETS OF LINEAR EQUATIONS FOR LINEAR RESPONSE PROPERTIES ---

 Operator symmetry = 1  ( A  ); triplet =   F


 ** RSPCTL MICROITERATION NUMBER    1

       No.  Residual tot.,    conf., and orb.    Bnorm      Frequency 
      ----------------------------------------------------------------
         1    2.75770D-01  0.00D+00  2.76D-01  4.77D-01    0.00000D+00

 ** RSPCTL MICROITERATION NUMBER    2

       No.  Residual tot.,    conf., and orb.    Bnorm      Frequency 
      ----------------------------------------------------------------
         1    6.55276D-02  0.00D+00  6.55D-02  5.20D-01    0.00000D+00

 ** RSPCTL MICROITERATION NUMBER    3

       No.  Residual tot.,    conf., and orb.    Bnorm      Frequency 
      ----------------------------------------------------------------
         1    1.69678D-02  0.00D+00  1.70D-02  5.29D-01    0.00000D+00

 ** RSPCTL MICROITERATION NUMBER    4

       No.  Residual tot.,    conf., and orb.    Bnorm      Frequency 
      ----------------------------------------------------------------
         1    3.26020D-03  0.00D+00  3.26D-03  5.31D-01    0.00000D+00

 ** RSPCTL MICROITERATION NUMBER    5

       No.  Residual tot.,    conf., and orb.    Bnorm      Frequency 
      ----------------------------------------------------------------
         1    9.93418D-04  0.00D+00  9.93D-04  5.31D-01    0.00000D+00

 ** RSPCTL MICROITERATION NUMBER    6

       No.  Residual tot.,    conf., and orb.    Bnorm      Frequency 
      ----------------------------------------------------------------
         1    1.72766D-04  0.00D+00  1.73D-04  5.32D-01    0.00000D+00

 *** THE REQUESTED    1 SOLUTION VECTORS CONVERGED

 Convergence of RSP solution vectors, threshold = 1.00D-03
 ---------------------------------------------------------------
 (dimension of paired reduced space:   12)
 RSP solution vector no.    1; norm of residual   3.25D-04

 *** RSPCTL MICROITERATIONS CONVERGED


           Final output of second order properties from linear response
           ------------------------------------------------------------


@ Spin symmetry of operators: singlet

 Note that minus the linear response function: - << A; B >>(omega) is printed.
 The results are of quadratic accuracy using Sellers formula.

@ FREQUENCY INDEPENDENT SECOND ORDER PROPERTIES

@ -<< AM010600 ; AM010600 >> =  9.263727216582E-01
@ -<< AM010600 ; AM020600 >> = -2.005131310542E-01
@ -<< AM010600 ; AM030100 >> = -1.856770860686E-01
@ -<< AM010600 ; AM040100 >> = -1.856762507383E-01
@ -<< AM010600 ; AM050100 >> = -1.856762387050E-01
@ -<< AM010600 ; AM060100 >> = -5.627708654336E-02
@ -<< AM010600 ; AM070100 >> = -5.627655887857E-02
@ -<< AM010600 ; AM080100 >> = -5.627699555422E-02
@ -<< AM020600 ; AM020600 >> =  9.263757854348E-01
@ -<< AM020600 ; AM030100 >> = -5.627736463701E-02
@ -<< AM020600 ; AM040100 >> = -5.627696248097E-02
@ -<< AM020600 ; AM050100 >> = -5.627699036520E-02
@ -<< AM020600 ; AM060100 >> = -1.856767542255E-01
@ -<< AM020600 ; AM070100 >> = -1.856764930485E-01
@ -<< AM020600 ; AM080100 >> = -1.856768279095E-01
@ -<< AM030100 ; AM030100 >> =  4.454430747666E-01
@ -<< AM030100 ; AM040100 >> = -6.424425451938E-02
@ -<< AM030100 ; AM050100 >> = -6.424415563879E-02
@ -<< AM030100 ; AM060100 >> = -3.878699078360E-02
@ -<< AM030100 ; AM070100 >> = -1.992527433899E-02
@ -<< AM030100 ; AM080100 >> = -1.628889113481E-02
@ -<< AM040100 ; AM040100 >> =  4.454432505286E-01
@ -<< AM040100 ; AM050100 >> = -6.424411430311E-02
@ -<< AM040100 ; AM060100 >> = -1.992540370979E-02
@ -<< AM040100 ; AM070100 >> = -1.628892105700E-02
@ -<< AM040100 ; AM080100 >> = -3.878699886799E-02
@ -<< AM050100 ; AM050100 >> =  4.454429989229E-01
@ -<< AM050100 ; AM060100 >> = -1.628887102667E-02
@ -<< AM050100 ; AM070100 >> = -3.878696392173E-02
@ -<< AM050100 ; AM080100 >> = -1.992520645623E-02
@ -<< AM060100 ; AM060100 >> =  4.454423530430E-01
@ -<< AM060100 ; AM070100 >> = -6.424395466028E-02
@ -<< AM060100 ; AM080100 >> = -6.424412044774E-02
@ -<< AM070100 ; AM070100 >> =  4.454430208726E-01
@ -<< AM070100 ; AM080100 >> = -6.424391932951E-02
@ -<< AM080100 ; AM080100 >> =  4.454422788309E-01


 Time used in linear response calculation is    137.44 CPU seconds for symmetry 1

  Total CPU  time used in RESPONSE:  2 minutes 32 seconds
  Total wall time used in RESPONSE:  2 minutes 33 seconds


                   .-------------------------------------------.
                   | End of Dynamic Property Section (RESPONS) |
                   `-------------------------------------------'

  Total CPU  time used in DALTON:  2 minutes 48 seconds
  Total wall time used in DALTON:  2 minutes 50 seconds

 NOTE:    1 informational messages have been issued.
 Check output, result, and error files for "INFO".

 
     Date and time (Linux)  : Tue Feb 25 10:30:02 2025
     Host name              : s42n23.grendel.cscaa.dk                 
